#+++++++++++++++++++++++++++++++++++++++++++++++++++++++++++++++++++++++++++++++++++++++++++++++++++++++++++++++++++++++++++++++++
#
#   IPW-3 Final Ice Shape DATA SUBMITTAL FORM for Test Case NACA0012_AE3933, May 18th 2026
#
#       NOMENCLATURE:
#             X_ICED [m]:  X-coordinate of the iced surface
#             Y_ICED [m]:  Y-coordinate of the iced surface
#             Z_ICED [m]:  Z-coordinate of the iced surface
#
#                XXmm:  Roughness height used for the case, in mm.
#                       In the zone name, use the format KS_XXmm.
#                       For example, if k_s = 1.5 mm, use KS_1p5mm. 
#                       For Variable roughness, use KS_VAR
#
#    FLOW CONDITIONS:
#                                   AOA: 4.0 deg
#                           Mach Number: 0.3127 [-]
#       Mean aerodynamic chord (M.A.C.): 0.5334 [m]
#                       Reynolds Number: 3.8947 million (based on MAC)
#                       Freestream Temp: 270.95 [K]
#                        Reference area: 0.97548 [m2]
#               Moment Reference Center: 0.13335, 0, 0 [m] (X, Y, Z)
#
#    ICING CONDITIONS:
#                           Icing Time: 420 [s]
#                                  LWC: 0.55 [g/m3]
#                                  MVD: 20 [μm]
#
#              NOTES: 1. Please use at least 5 decimal places in the numerical values
#                     2. If data are NOT provided, please fill data fields with a numerical value of "-999" 
#
#++++++++++++++++++++++++++++++++++++++++++++++++++++++++++++++++++++++++++++++++++++++++++++++++++++++++++++++++++++

VARIABLES = "X_ICED" "Y_ICED" "Z_ICED"
ZONE T="SLICE_Y_0p9144_BINS01_KS_0p5334mm_SINGLE_LAYER"
0.53242 0.91440 -0.02798 
0.53241 0.91440 -0.02813 
0.53240 0.91440 -0.02828 
0.53239 0.91440 -0.02843 
0.53238 0.91440 -0.02858 
0.53086 0.91440 -0.02868 
0.52843 0.91440 -0.02885 
0.52453 0.91440 -0.02911 
0.51931 0.91440 -0.02946 
0.51409 0.91440 -0.02980 
0.50887 0.91440 -0.03013 
0.50365 0.91440 -0.03045 
0.49843 0.91440 -0.03077 
0.49321 0.91440 -0.03107 
0.48799 0.91440 -0.03137 
0.48277 0.91440 -0.03166 
0.47754 0.91440 -0.03195 
0.47232 0.91440 -0.03223 
0.46710 0.91440 -0.03250 
0.46187 0.91440 -0.03276 
0.45665 0.91440 -0.03302 
0.45143 0.91440 -0.03327 
0.44620 0.91440 -0.03351 
0.44098 0.91440 -0.03374 
0.43575 0.91440 -0.03397 
0.43052 0.91440 -0.03420 
0.42530 0.91440 -0.03441 
0.42007 0.91440 -0.03462 
0.41484 0.91440 -0.03482 
0.40962 0.91440 -0.03502 
0.40439 0.91440 -0.03521 
0.39916 0.91440 -0.03539 
0.39394 0.91440 -0.03556 
0.38871 0.91440 -0.03573 
0.38348 0.91440 -0.03589 
0.37825 0.91440 -0.03605 
0.37302 0.91440 -0.03620 
0.36779 0.91440 -0.03634 
0.36257 0.91440 -0.03647 
0.35734 0.91440 -0.03660 
0.35211 0.91440 -0.03672 
0.34688 0.91440 -0.03683 
0.34165 0.91440 -0.03693 
0.33642 0.91440 -0.03703 
0.33119 0.91440 -0.03712 
0.32596 0.91440 -0.03720 
0.32073 0.91440 -0.03727 
0.31550 0.91440 -0.03733 
0.31027 0.91440 -0.03739 
0.30504 0.91440 -0.03743 
0.29981 0.91440 -0.03747 
0.29458 0.91440 -0.03750 
0.28935 0.91440 -0.03752 
0.28412 0.91440 -0.03753 
0.27889 0.91440 -0.03753 
0.27366 0.91440 -0.03752 
0.26843 0.91440 -0.03750 
0.26320 0.91440 -0.03746 
0.25797 0.91440 -0.03742 
0.25273 0.91440 -0.03736 
0.24750 0.91440 -0.03730 
0.24227 0.91440 -0.03722 
0.23705 0.91440 -0.03712 
0.23182 0.91440 -0.03702 
0.22659 0.91440 -0.03690 
0.22136 0.91440 -0.03677 
0.21613 0.91440 -0.03662 
0.21090 0.91440 -0.03646 
0.20567 0.91440 -0.03628 
0.20045 0.91440 -0.03608 
0.19522 0.91440 -0.03587 
0.19000 0.91440 -0.03564 
0.18477 0.91440 -0.03539 
0.17955 0.91440 -0.03513 
0.17432 0.91440 -0.03484 
0.16910 0.91440 -0.03454 
0.16388 0.91440 -0.03421 
0.15866 0.91440 -0.03386 
0.15345 0.91440 -0.03349 
0.14823 0.91440 -0.03309 
0.14302 0.91440 -0.03267 
0.13781 0.91440 -0.03223 
0.13258 0.91440 -0.03175 
0.12761 0.91440 -0.03127 
0.12288 0.91440 -0.03079 
0.11837 0.91440 -0.03030 
0.11408 0.91440 -0.02982 
0.11000 0.91440 -0.02934 
0.10611 0.91440 -0.02886 
0.10242 0.91440 -0.02838 
0.09890 0.91440 -0.02791 
0.09555 0.91440 -0.02745 
0.09236 0.91440 -0.02699 
0.08933 0.91440 -0.02653 
0.08644 0.91440 -0.02609 
0.08358 0.91440 -0.02563 
0.08072 0.91440 -0.02516 
0.07786 0.91440 -0.02467 
0.07501 0.91440 -0.02417 
0.07216 0.91440 -0.02365 
0.06931 0.91440 -0.02311 
0.06645 0.91440 -0.02263 
0.06357 0.91440 -0.02225 
0.06062 0.91440 -0.02213 
0.05726 0.91440 -0.02387 
0.05395 0.91440 -0.02522 
0.05108 0.91440 -0.02457 
0.04820 0.91440 -0.02391 
0.04533 0.91440 -0.02323 
0.04246 0.91440 -0.02252 
0.03960 0.91440 -0.02177 
0.03674 0.91440 -0.02098 
0.03389 0.91440 -0.02015 
0.03103 0.91440 -0.01928 
0.02819 0.91440 -0.01837 
0.02535 0.91440 -0.01740 
0.02252 0.91440 -0.01636 
0.01969 0.91440 -0.01525 
0.01688 0.91440 -0.01406 
0.01408 0.91440 -0.01277 
0.01131 0.91440 -0.01135 
0.00857 0.91440 -0.00976 
0.00588 0.91440 -0.00795 
0.00329 0.91440 -0.00588 
0.00105 0.91440 -0.00369 
-0.00060 0.91440 -0.00137 
-0.00187 0.91440 0.00089 
-0.00377 0.91440 0.00266 
-0.00599 0.91440 0.00455 
-0.00742 0.91440 0.00705 
-0.00785 0.91440 0.00916 
-0.01017 0.91440 0.01337 
-0.00992 0.91440 0.01687 
-0.00900 0.91440 0.02033 
-0.00717 0.91440 0.02341 
-0.00465 0.91440 0.02597 
-0.00162 0.91440 0.02804 
0.00287 0.91440 0.02789 
0.00891 0.91440 0.02399 
0.01325 0.91440 0.02173 
0.01594 0.91440 0.02279 
0.01866 0.91440 0.02374 
0.02142 0.91440 0.02459 
0.02420 0.91440 0.02536 
0.02700 0.91440 0.02606 
0.02981 0.91440 0.02670 
0.03263 0.91440 0.02729 
0.03547 0.91440 0.02782 
0.03831 0.91440 0.02831 
0.04116 0.91440 0.02876 
0.04401 0.91440 0.02918 
0.04687 0.91440 0.02956 
0.04974 0.91440 0.02991 
0.05260 0.91440 0.03023 
0.05547 0.91440 0.03052 
0.05835 0.91440 0.03078 
0.06122 0.91440 0.03103 
0.06410 0.91440 0.03124 
0.06697 0.91440 0.03144 
0.06985 0.91440 0.03162 
0.07273 0.91440 0.03178 
0.07562 0.91440 0.03191 
0.07850 0.91440 0.03203 
0.08138 0.91440 0.03214 
0.08426 0.91440 0.03223 
0.08715 0.91440 0.03230 
0.09003 0.91440 0.03235 
0.09283 0.91440 0.03239 
0.09576 0.91440 0.03242 
0.09885 0.91440 0.03244 
0.10208 0.91440 0.03244 
0.10548 0.91440 0.03242 
0.10905 0.91440 0.03239 
0.11280 0.91440 0.03233 
0.11673 0.91440 0.03225 
0.12086 0.91440 0.03215 
0.12519 0.91440 0.03202 
0.12975 0.91440 0.03185 
0.13452 0.91440 0.03166 
0.13954 0.91440 0.03143 
0.14480 0.91440 0.03116 
0.15006 0.91440 0.03086 
0.15532 0.91440 0.03054 
0.16058 0.91440 0.03019 
0.16583 0.91440 0.02981 
0.17108 0.91440 0.02942 
0.17633 0.91440 0.02900 
0.18158 0.91440 0.02856 
0.18683 0.91440 0.02811 
0.19207 0.91440 0.02763 
0.19732 0.91440 0.02713 
0.20256 0.91440 0.02662 
0.20780 0.91440 0.02609 
0.21304 0.91440 0.02554 
0.21827 0.91440 0.02498 
0.22351 0.91440 0.02440 
0.22874 0.91440 0.02380 
0.23397 0.91440 0.02320 
0.23920 0.91440 0.02257 
0.24443 0.91440 0.02194 
0.24966 0.91440 0.02129 
0.25489 0.91440 0.02063 
0.26011 0.91440 0.01995 
0.26533 0.91440 0.01927 
0.27055 0.91440 0.01857 
0.27577 0.91440 0.01786 
0.28099 0.91440 0.01715 
0.28621 0.91440 0.01642 
0.29142 0.91440 0.01568 
0.29663 0.91440 0.01493 
0.30185 0.91440 0.01417 
0.30706 0.91440 0.01340 
0.31227 0.91440 0.01262 
0.31747 0.91440 0.01184 
0.32268 0.91440 0.01104 
0.32789 0.91440 0.01024 
0.33309 0.91440 0.00943 
0.33829 0.91440 0.00861 
0.34349 0.91440 0.00778 
0.34870 0.91440 0.00695 
0.35389 0.91440 0.00611 
0.35909 0.91440 0.00526 
0.36429 0.91440 0.00440 
0.36948 0.91440 0.00354 
0.37468 0.91440 0.00266 
0.37987 0.91440 0.00179 
0.38506 0.91440 0.00090 
0.39026 0.91440 0.00001 
0.39544 0.91440 -0.00089 
0.40063 0.91440 -0.00180 
0.40582 0.91440 -0.00271 
0.41101 0.91440 -0.00363 
0.41619 0.91440 -0.00456 
0.42138 0.91440 -0.00549 
0.42656 0.91440 -0.00643 
0.43174 0.91440 -0.00738 
0.43692 0.91440 -0.00833 
0.44210 0.91440 -0.00929 
0.44728 0.91440 -0.01026 
0.45245 0.91440 -0.01123 
0.45763 0.91440 -0.01221 
0.46280 0.91440 -0.01320 
0.46797 0.91440 -0.01419 
0.47314 0.91440 -0.01519 
0.47831 0.91440 -0.01620 
0.48348 0.91440 -0.01722 
0.48865 0.91440 -0.01824 
0.49381 0.91440 -0.01927 
0.49898 0.91440 -0.02031 
0.50414 0.91440 -0.02135 
0.50930 0.91440 -0.02240 
0.51446 0.91440 -0.02346 
0.51962 0.91440 -0.02453 
0.52477 0.91440 -0.02561 
0.52859 0.91440 -0.02641 
0.53098 0.91440 -0.02692 
0.53247 0.91440 -0.02724 
0.53246 0.91440 -0.02738 
0.53245 0.91440 -0.02753 
0.53244 0.91440 -0.02768 
0.53243 0.91440 -0.02783 
0.53242 0.91440 -0.02798 

VARIABLES = "X_ICED" "Y_ICED" "Z_ICED"
ZONE T="SLICE_Y_0p9144_BINS03_KS_0p5334mm_SINGLE_LAYER"
0.53242 0.91440 -0.02798 
0.53241 0.91440 -0.02813 
0.53240 0.91440 -0.02828 
0.53239 0.91440 -0.02843 
0.53238 0.91440 -0.02858 
0.53086 0.91440 -0.02868 
0.52843 0.91440 -0.02885 
0.52453 0.91440 -0.02911 
0.51931 0.91440 -0.02946 
0.51409 0.91440 -0.02980 
0.50887 0.91440 -0.03013 
0.50365 0.91440 -0.03045 
0.49843 0.91440 -0.03077 
0.49321 0.91440 -0.03107 
0.48799 0.91440 -0.03137 
0.48277 0.91440 -0.03166 
0.47754 0.91440 -0.03195 
0.47232 0.91440 -0.03223 
0.46710 0.91440 -0.03250 
0.46187 0.91440 -0.03276 
0.45665 0.91440 -0.03302 
0.45143 0.91440 -0.03327 
0.44620 0.91440 -0.03351 
0.44098 0.91440 -0.03374 
0.43575 0.91440 -0.03397 
0.43052 0.91440 -0.03420 
0.42530 0.91440 -0.03441 
0.42007 0.91440 -0.03462 
0.41484 0.91440 -0.03482 
0.40962 0.91440 -0.03502 
0.40439 0.91440 -0.03521 
0.39916 0.91440 -0.03539 
0.39394 0.91440 -0.03556 
0.38871 0.91440 -0.03573 
0.38348 0.91440 -0.03589 
0.37825 0.91440 -0.03605 
0.37302 0.91440 -0.03620 
0.36779 0.91440 -0.03634 
0.36257 0.91440 -0.03647 
0.35734 0.91440 -0.03660 
0.35211 0.91440 -0.03672 
0.34688 0.91440 -0.03683 
0.34165 0.91440 -0.03693 
0.33642 0.91440 -0.03703 
0.33119 0.91440 -0.03712 
0.32596 0.91440 -0.03720 
0.32073 0.91440 -0.03727 
0.31550 0.91440 -0.03733 
0.31027 0.91440 -0.03739 
0.30504 0.91440 -0.03743 
0.29981 0.91440 -0.03747 
0.29458 0.91440 -0.03750 
0.28935 0.91440 -0.03752 
0.28412 0.91440 -0.03753 
0.27889 0.91440 -0.03753 
0.27366 0.91440 -0.03752 
0.26843 0.91440 -0.03750 
0.26320 0.91440 -0.03746 
0.25797 0.91440 -0.03742 
0.25273 0.91440 -0.03736 
0.24750 0.91440 -0.03730 
0.24227 0.91440 -0.03722 
0.23705 0.91440 -0.03712 
0.23182 0.91440 -0.03702 
0.22659 0.91440 -0.03690 
0.22136 0.91440 -0.03677 
0.21613 0.91440 -0.03662 
0.21090 0.91440 -0.03646 
0.20567 0.91440 -0.03628 
0.20045 0.91440 -0.03608 
0.19522 0.91440 -0.03587 
0.19000 0.91440 -0.03564 
0.18477 0.91440 -0.03539 
0.17955 0.91440 -0.03513 
0.17432 0.91440 -0.03484 
0.16910 0.91440 -0.03454 
0.16388 0.91440 -0.03421 
0.15866 0.91440 -0.03386 
0.15345 0.91440 -0.03349 
0.14823 0.91440 -0.03310 
0.14301 0.91440 -0.03271 
0.13780 0.91440 -0.03230 
0.13257 0.91440 -0.03185 
0.12760 0.91440 -0.03141 
0.12286 0.91440 -0.03097 
0.11835 0.91440 -0.03052 
0.11405 0.91440 -0.03007 
0.10997 0.91440 -0.02960 
0.10608 0.91440 -0.02915 
0.10237 0.91440 -0.02872 
0.09884 0.91440 -0.02831 
0.09549 0.91440 -0.02789 
0.09229 0.91440 -0.02748 
0.08925 0.91440 -0.02706 
0.08635 0.91440 -0.02666 
0.08348 0.91440 -0.02625 
0.08061 0.91440 -0.02580 
0.07775 0.91440 -0.02533 
0.07489 0.91440 -0.02484 
0.07202 0.91440 -0.02437 
0.06915 0.91440 -0.02391 
0.06629 0.91440 -0.02341 
0.06344 0.91440 -0.02287 
0.06059 0.91440 -0.02231 
0.05774 0.91440 -0.02173 
0.05441 0.91440 -0.02323 
0.05106 0.91440 -0.02465 
0.04820 0.91440 -0.02393 
0.04533 0.91440 -0.02325 
0.04246 0.91440 -0.02254 
0.03960 0.91440 -0.02178 
0.03674 0.91440 -0.02097 
0.03389 0.91440 -0.02014 
0.03104 0.91440 -0.01927 
0.02819 0.91440 -0.01836 
0.02535 0.91440 -0.01737 
0.02253 0.91440 -0.01632 
0.01971 0.91440 -0.01520 
0.01691 0.91440 -0.01400 
0.01411 0.91440 -0.01271 
0.01134 0.91440 -0.01128 
0.00861 0.91440 -0.00969 
0.00593 0.91440 -0.00788 
0.00335 0.91440 -0.00580 
0.00112 0.91440 -0.00362 
-0.00054 0.91440 -0.00131 
-0.00179 0.91440 0.00094 
-0.00368 0.91440 0.00270 
-0.00590 0.91440 0.00457 
-0.00737 0.91440 0.00706 
-0.00781 0.91440 0.00916 
-0.01010 0.91440 0.01335 
-0.00981 0.91440 0.01682 
-0.00890 0.91440 0.02027 
-0.00713 0.91440 0.02337 
-0.00464 0.91440 0.02596 
-0.00165 0.91440 0.02808 
0.00330 0.91440 0.02719 
0.00902 0.91440 0.02376 
0.01285 0.91440 0.02268 
0.01570 0.91440 0.02344 
0.01852 0.91440 0.02418 
0.02134 0.91440 0.02484 
0.02418 0.91440 0.02544 
0.02700 0.91440 0.02606 
0.02981 0.91440 0.02670 
0.03263 0.91440 0.02729 
0.03547 0.91440 0.02782 
0.03831 0.91440 0.02831 
0.04116 0.91440 0.02876 
0.04401 0.91440 0.02918 
0.04687 0.91440 0.02956 
0.04974 0.91440 0.02991 
0.05260 0.91440 0.03023 
0.05547 0.91440 0.03052 
0.05835 0.91440 0.03078 
0.06122 0.91440 0.03103 
0.06410 0.91440 0.03124 
0.06697 0.91440 0.03144 
0.06985 0.91440 0.03162 
0.07273 0.91440 0.03178 
0.07562 0.91440 0.03191 
0.07850 0.91440 0.03203 
0.08138 0.91440 0.03214 
0.08426 0.91440 0.03223 
0.08715 0.91440 0.03230 
0.09003 0.91440 0.03235 
0.09283 0.91440 0.03239 
0.09576 0.91440 0.03242 
0.09885 0.91440 0.03244 
0.10208 0.91440 0.03244 
0.10548 0.91440 0.03242 
0.10905 0.91440 0.03239 
0.11280 0.91440 0.03233 
0.11673 0.91440 0.03225 
0.12086 0.91440 0.03215 
0.12519 0.91440 0.03202 
0.12975 0.91440 0.03185 
0.13452 0.91440 0.03166 
0.13954 0.91440 0.03143 
0.14480 0.91440 0.03116 
0.15006 0.91440 0.03086 
0.15532 0.91440 0.03054 
0.16058 0.91440 0.03019 
0.16583 0.91440 0.02981 
0.17108 0.91440 0.02942 
0.17633 0.91440 0.02900 
0.18158 0.91440 0.02856 
0.18683 0.91440 0.02811 
0.19207 0.91440 0.02763 
0.19732 0.91440 0.02713 
0.20256 0.91440 0.02662 
0.20780 0.91440 0.02609 
0.21304 0.91440 0.02554 
0.21827 0.91440 0.02498 
0.22351 0.91440 0.02440 
0.22874 0.91440 0.02380 
0.23397 0.91440 0.02320 
0.23920 0.91440 0.02257 
0.24443 0.91440 0.02194 
0.24966 0.91440 0.02129 
0.25489 0.91440 0.02063 
0.26011 0.91440 0.01995 
0.26533 0.91440 0.01927 
0.27055 0.91440 0.01857 
0.27577 0.91440 0.01786 
0.28099 0.91440 0.01715 
0.28621 0.91440 0.01642 
0.29142 0.91440 0.01568 
0.29663 0.91440 0.01493 
0.30185 0.91440 0.01417 
0.30706 0.91440 0.01340 
0.31227 0.91440 0.01262 
0.31747 0.91440 0.01184 
0.32268 0.91440 0.01104 
0.32789 0.91440 0.01024 
0.33309 0.91440 0.00943 
0.33829 0.91440 0.00861 
0.34349 0.91440 0.00778 
0.34870 0.91440 0.00695 
0.35389 0.91440 0.00611 
0.35909 0.91440 0.00526 
0.36429 0.91440 0.00440 
0.36948 0.91440 0.00354 
0.37468 0.91440 0.00266 
0.37987 0.91440 0.00179 
0.38506 0.91440 0.00090 
0.39026 0.91440 0.00001 
0.39544 0.91440 -0.00089 
0.40063 0.91440 -0.00180 
0.40582 0.91440 -0.00271 
0.41101 0.91440 -0.00363 
0.41619 0.91440 -0.00456 
0.42138 0.91440 -0.00549 
0.42656 0.91440 -0.00643 
0.43174 0.91440 -0.00738 
0.43692 0.91440 -0.00833 
0.44210 0.91440 -0.00929 
0.44728 0.91440 -0.01026 
0.45245 0.91440 -0.01123 
0.45763 0.91440 -0.01221 
0.46280 0.91440 -0.01320 
0.46797 0.91440 -0.01419 
0.47314 0.91440 -0.01519 
0.47831 0.91440 -0.01620 
0.48348 0.91440 -0.01722 
0.48865 0.91440 -0.01824 
0.49381 0.91440 -0.01927 
0.49898 0.91440 -0.02031 
0.50414 0.91440 -0.02135 
0.50930 0.91440 -0.02240 
0.51446 0.91440 -0.02346 
0.51962 0.91440 -0.02453 
0.52477 0.91440 -0.02561 
0.52859 0.91440 -0.02641 
0.53098 0.91440 -0.02692 
0.53247 0.91440 -0.02724 
0.53246 0.91440 -0.02738 
0.53245 0.91440 -0.02753 
0.53244 0.91440 -0.02768 
0.53243 0.91440 -0.02783 
0.53242 0.91440 -0.02798 

VARIABLES = "X_ICED" "Y_ICED" "Z_ICED"
ZONE T="SLICE_Y_0p9144_BINS03_KS_0p5334mm_SINGLE_LAYER"
0.53242 0.91440 -0.02798 
0.53241 0.91440 -0.02813 
0.53240 0.91440 -0.02828 
0.53239 0.91440 -0.02843 
0.53238 0.91440 -0.02858 
0.53086 0.91440 -0.02868 
0.52843 0.91440 -0.02885 
0.52453 0.91440 -0.02911 
0.51931 0.91440 -0.02946 
0.51409 0.91440 -0.02980 
0.50887 0.91440 -0.03013 
0.50365 0.91440 -0.03045 
0.49843 0.91440 -0.03077 
0.49321 0.91440 -0.03107 
0.48799 0.91440 -0.03137 
0.48277 0.91440 -0.03166 
0.47754 0.91440 -0.03195 
0.47232 0.91440 -0.03223 
0.46710 0.91440 -0.03250 
0.46187 0.91440 -0.03276 
0.45665 0.91440 -0.03302 
0.45143 0.91440 -0.03327 
0.44620 0.91440 -0.03351 
0.44098 0.91440 -0.03374 
0.43575 0.91440 -0.03397 
0.43052 0.91440 -0.03420 
0.42530 0.91440 -0.03441 
0.42007 0.91440 -0.03462 
0.41484 0.91440 -0.03482 
0.40962 0.91440 -0.03502 
0.40439 0.91440 -0.03521 
0.39916 0.91440 -0.03539 
0.39394 0.91440 -0.03556 
0.38871 0.91440 -0.03573 
0.38348 0.91440 -0.03589 
0.37825 0.91440 -0.03605 
0.37302 0.91440 -0.03620 
0.36779 0.91440 -0.03634 
0.36257 0.91440 -0.03647 
0.35734 0.91440 -0.03660 
0.35211 0.91440 -0.03672 
0.34688 0.91440 -0.03683 
0.34165 0.91440 -0.03693 
0.33642 0.91440 -0.03703 
0.33119 0.91440 -0.03712 
0.32596 0.91440 -0.03720 
0.32073 0.91440 -0.03727 
0.31550 0.91440 -0.03733 
0.31027 0.91440 -0.03739 
0.30504 0.91440 -0.03743 
0.29981 0.91440 -0.03747 
0.29458 0.91440 -0.03750 
0.28935 0.91440 -0.03752 
0.28412 0.91440 -0.03753 
0.27889 0.91440 -0.03753 
0.27366 0.91440 -0.03752 
0.26843 0.91440 -0.03750 
0.26320 0.91440 -0.03746 
0.25797 0.91440 -0.03742 
0.25273 0.91440 -0.03736 
0.24750 0.91440 -0.03730 
0.24227 0.91440 -0.03722 
0.23705 0.91440 -0.03712 
0.23182 0.91440 -0.03702 
0.22659 0.91440 -0.03690 
0.22136 0.91440 -0.03677 
0.21613 0.91440 -0.03662 
0.21090 0.91440 -0.03646 
0.20567 0.91440 -0.03628 
0.20045 0.91440 -0.03608 
0.19522 0.91440 -0.03587 
0.19000 0.91440 -0.03564 
0.18477 0.91440 -0.03539 
0.17955 0.91440 -0.03513 
0.17432 0.91440 -0.03484 
0.16910 0.91440 -0.03454 
0.16388 0.91440 -0.03421 
0.15866 0.91440 -0.03386 
0.15345 0.91440 -0.03349 
0.14823 0.91440 -0.03310 
0.14301 0.91440 -0.03271 
0.13780 0.91440 -0.03230 
0.13257 0.91440 -0.03185 
0.12760 0.91440 -0.03141 
0.12286 0.91440 -0.03097 
0.11835 0.91440 -0.03052 
0.11405 0.91440 -0.03007 
0.10997 0.91440 -0.02960 
0.10608 0.91440 -0.02915 
0.10237 0.91440 -0.02872 
0.09884 0.91440 -0.02831 
0.09549 0.91440 -0.02789 
0.09229 0.91440 -0.02748 
0.08925 0.91440 -0.02706 
0.08635 0.91440 -0.02666 
0.08348 0.91440 -0.02625 
0.08061 0.91440 -0.02580 
0.07775 0.91440 -0.02533 
0.07489 0.91440 -0.02484 
0.07202 0.91440 -0.02437 
0.06915 0.91440 -0.02391 
0.06629 0.91440 -0.02341 
0.06344 0.91440 -0.02287 
0.06059 0.91440 -0.02231 
0.05774 0.91440 -0.02173 
0.05441 0.91440 -0.02323 
0.05106 0.91440 -0.02465 
0.04820 0.91440 -0.02393 
0.04533 0.91440 -0.02325 
0.04246 0.91440 -0.02254 
0.03960 0.91440 -0.02178 
0.03674 0.91440 -0.02097 
0.03389 0.91440 -0.02014 
0.03104 0.91440 -0.01927 
0.02819 0.91440 -0.01836 
0.02535 0.91440 -0.01737 
0.02253 0.91440 -0.01632 
0.01971 0.91440 -0.01520 
0.01691 0.91440 -0.01400 
0.01411 0.91440 -0.01271 
0.01134 0.91440 -0.01128 
0.00861 0.91440 -0.00969 
0.00593 0.91440 -0.00788 
0.00335 0.91440 -0.00580 
0.00112 0.91440 -0.00362 
-0.00054 0.91440 -0.00131 
-0.00179 0.91440 0.00094 
-0.00368 0.91440 0.00270 
-0.00590 0.91440 0.00457 
-0.00737 0.91440 0.00706 
-0.00781 0.91440 0.00916 
-0.01010 0.91440 0.01335 
-0.00981 0.91440 0.01682 
-0.00890 0.91440 0.02027 
-0.00713 0.91440 0.02337 
-0.00464 0.91440 0.02596 
-0.00165 0.91440 0.02808 
0.00330 0.91440 0.02719 
0.00902 0.91440 0.02376 
0.01285 0.91440 0.02268 
0.01570 0.91440 0.02344 
0.01852 0.91440 0.02418 
0.02134 0.91440 0.02484 
0.02418 0.91440 0.02544 
0.02700 0.91440 0.02606 
0.02981 0.91440 0.02670 
0.03263 0.91440 0.02729 
0.03547 0.91440 0.02782 
0.03831 0.91440 0.02831 
0.04116 0.91440 0.02876 
0.04401 0.91440 0.02918 
0.04687 0.91440 0.02956 
0.04974 0.91440 0.02991 
0.05260 0.91440 0.03023 
0.05547 0.91440 0.03052 
0.05835 0.91440 0.03078 
0.06122 0.91440 0.03103 
0.06410 0.91440 0.03124 
0.06697 0.91440 0.03144 
0.06985 0.91440 0.03162 
0.07273 0.91440 0.03178 
0.07562 0.91440 0.03191 
0.07850 0.91440 0.03203 
0.08138 0.91440 0.03214 
0.08426 0.91440 0.03223 
0.08715 0.91440 0.03230 
0.09003 0.91440 0.03235 
0.09283 0.91440 0.03239 
0.09576 0.91440 0.03242 
0.09885 0.91440 0.03244 
0.10208 0.91440 0.03244 
0.10548 0.91440 0.03242 
0.10905 0.91440 0.03239 
0.11280 0.91440 0.03233 
0.11673 0.91440 0.03225 
0.12086 0.91440 0.03215 
0.12519 0.91440 0.03202 
0.12975 0.91440 0.03185 
0.13452 0.91440 0.03166 
0.13954 0.91440 0.03143 
0.14480 0.91440 0.03116 
0.15006 0.91440 0.03086 
0.15532 0.91440 0.03054 
0.16058 0.91440 0.03019 
0.16583 0.91440 0.02981 
0.17108 0.91440 0.02942 
0.17633 0.91440 0.02900 
0.18158 0.91440 0.02856 
0.18683 0.91440 0.02811 
0.19207 0.91440 0.02763 
0.19732 0.91440 0.02713 
0.20256 0.91440 0.02662 
0.20780 0.91440 0.02609 
0.21304 0.91440 0.02554 
0.21827 0.91440 0.02498 
0.22351 0.91440 0.02440 
0.22874 0.91440 0.02380 
0.23397 0.91440 0.02320 
0.23920 0.91440 0.02257 
0.24443 0.91440 0.02194 
0.24966 0.91440 0.02129 
0.25489 0.91440 0.02063 
0.26011 0.91440 0.01995 
0.26533 0.91440 0.01927 
0.27055 0.91440 0.01857 
0.27577 0.91440 0.01786 
0.28099 0.91440 0.01715 
0.28621 0.91440 0.01642 
0.29142 0.91440 0.01568 
0.29663 0.91440 0.01493 
0.30185 0.91440 0.01417 
0.30706 0.91440 0.01340 
0.31227 0.91440 0.01262 
0.31747 0.91440 0.01184 
0.32268 0.91440 0.01104 
0.32789 0.91440 0.01024 
0.33309 0.91440 0.00943 
0.33829 0.91440 0.00861 
0.34349 0.91440 0.00778 
0.34870 0.91440 0.00695 
0.35389 0.91440 0.00611 
0.35909 0.91440 0.00526 
0.36429 0.91440 0.00440 
0.36948 0.91440 0.00354 
0.37468 0.91440 0.00266 
0.37987 0.91440 0.00179 
0.38506 0.91440 0.00090 
0.39026 0.91440 0.00001 
0.39544 0.91440 -0.00089 
0.40063 0.91440 -0.00180 
0.40582 0.91440 -0.00271 
0.41101 0.91440 -0.00363 
0.41619 0.91440 -0.00456 
0.42138 0.91440 -0.00549 
0.42656 0.91440 -0.00643 
0.43174 0.91440 -0.00738 
0.43692 0.91440 -0.00833 
0.44210 0.91440 -0.00929 
0.44728 0.91440 -0.01026 
0.45245 0.91440 -0.01123 
0.45763 0.91440 -0.01221 
0.46280 0.91440 -0.01320 
0.46797 0.91440 -0.01419 
0.47314 0.91440 -0.01519 
0.47831 0.91440 -0.01620 
0.48348 0.91440 -0.01722 
0.48865 0.91440 -0.01824 
0.49381 0.91440 -0.01927 
0.49898 0.91440 -0.02031 
0.50414 0.91440 -0.02135 
0.50930 0.91440 -0.02240 
0.51446 0.91440 -0.02346 
0.51962 0.91440 -0.02453 
0.52477 0.91440 -0.02561 
0.52859 0.91440 -0.02641 
0.53098 0.91440 -0.02692 
0.53247 0.91440 -0.02724 
0.53246 0.91440 -0.02738 
0.53245 0.91440 -0.02753 
0.53244 0.91440 -0.02768 
0.53243 0.91440 -0.02783 
0.53242 0.91440 -0.02798 

VARIABLES = "X_ICED" "Y_ICED" "Z_ICED"
ZONE T="SLICE_Y_0p9144_BINS15_KS_0p5334mm_SINGLE_LAYER"
0.53242 0.91440 -0.02798 
0.53241 0.91440 -0.02813 
0.53240 0.91440 -0.02828 
0.53239 0.91440 -0.02843 
0.53238 0.91440 -0.02858 
0.53086 0.91440 -0.02868 
0.52843 0.91440 -0.02885 
0.52453 0.91440 -0.02911 
0.51931 0.91440 -0.02946 
0.51409 0.91440 -0.02980 
0.50887 0.91440 -0.03013 
0.50365 0.91440 -0.03045 
0.49843 0.91440 -0.03077 
0.49321 0.91440 -0.03107 
0.48799 0.91440 -0.03137 
0.48277 0.91440 -0.03166 
0.47754 0.91440 -0.03195 
0.47232 0.91440 -0.03223 
0.46710 0.91440 -0.03250 
0.46187 0.91440 -0.03276 
0.45665 0.91440 -0.03302 
0.45143 0.91440 -0.03327 
0.44620 0.91440 -0.03351 
0.44098 0.91440 -0.03374 
0.43575 0.91440 -0.03397 
0.43052 0.91440 -0.03420 
0.42530 0.91440 -0.03441 
0.42007 0.91440 -0.03462 
0.41484 0.91440 -0.03482 
0.40962 0.91440 -0.03502 
0.40439 0.91440 -0.03521 
0.39916 0.91440 -0.03539 
0.39394 0.91440 -0.03556 
0.38871 0.91440 -0.03573 
0.38348 0.91440 -0.03589 
0.37825 0.91440 -0.03605 
0.37302 0.91440 -0.03620 
0.36779 0.91440 -0.03634 
0.36257 0.91440 -0.03647 
0.35734 0.91440 -0.03660 
0.35211 0.91440 -0.03672 
0.34688 0.91440 -0.03683 
0.34165 0.91440 -0.03693 
0.33642 0.91440 -0.03703 
0.33119 0.91440 -0.03712 
0.32596 0.91440 -0.03720 
0.32073 0.91440 -0.03727 
0.31550 0.91440 -0.03733 
0.31027 0.91440 -0.03739 
0.30504 0.91440 -0.03743 
0.29981 0.91440 -0.03747 
0.29458 0.91440 -0.03750 
0.28935 0.91440 -0.03752 
0.28412 0.91440 -0.03753 
0.27889 0.91440 -0.03753 
0.27366 0.91440 -0.03752 
0.26843 0.91440 -0.03750 
0.26320 0.91440 -0.03746 
0.25797 0.91440 -0.03742 
0.25273 0.91440 -0.03736 
0.24750 0.91440 -0.03730 
0.24227 0.91440 -0.03722 
0.23705 0.91440 -0.03712 
0.23182 0.91440 -0.03702 
0.22659 0.91440 -0.03690 
0.22136 0.91440 -0.03677 
0.21613 0.91440 -0.03662 
0.21090 0.91440 -0.03646 
0.20567 0.91440 -0.03628 
0.20045 0.91440 -0.03608 
0.19522 0.91440 -0.03587 
0.19000 0.91440 -0.03564 
0.18477 0.91440 -0.03539 
0.17955 0.91440 -0.03513 
0.17432 0.91440 -0.03484 
0.16910 0.91440 -0.03454 
0.16388 0.91440 -0.03421 
0.15866 0.91440 -0.03386 
0.15345 0.91440 -0.03350 
0.14823 0.91440 -0.03312 
0.14301 0.91440 -0.03273 
0.13780 0.91440 -0.03231 
0.13257 0.91440 -0.03186 
0.12759 0.91440 -0.03142 
0.12286 0.91440 -0.03097 
0.11835 0.91440 -0.03052 
0.11405 0.91440 -0.03007 
0.10996 0.91440 -0.02963 
0.10607 0.91440 -0.02919 
0.10237 0.91440 -0.02876 
0.09884 0.91440 -0.02834 
0.09548 0.91440 -0.02792 
0.09228 0.91440 -0.02751 
0.08924 0.91440 -0.02711 
0.08634 0.91440 -0.02672 
0.08347 0.91440 -0.02631 
0.08059 0.91440 -0.02590 
0.07772 0.91440 -0.02547 
0.07485 0.91440 -0.02503 
0.07198 0.91440 -0.02459 
0.06911 0.91440 -0.02414 
0.06624 0.91440 -0.02369 
0.06337 0.91440 -0.02321 
0.06050 0.91440 -0.02270 
0.05764 0.91440 -0.02218 
0.05464 0.91440 -0.02224 
0.05135 0.91440 -0.02344 
0.04819 0.91440 -0.02397 
0.04532 0.91440 -0.02327 
0.04246 0.91440 -0.02254 
0.03960 0.91440 -0.02177 
0.03674 0.91440 -0.02097 
0.03389 0.91440 -0.02014 
0.03104 0.91440 -0.01926 
0.02820 0.91440 -0.01833 
0.02536 0.91440 -0.01735 
0.02254 0.91440 -0.01630 
0.01972 0.91440 -0.01518 
0.01692 0.91440 -0.01398 
0.01413 0.91440 -0.01268 
0.01136 0.91440 -0.01125 
0.00863 0.91440 -0.00966 
0.00596 0.91440 -0.00785 
0.00338 0.91440 -0.00577 
0.00114 0.91440 -0.00359 
-0.00052 0.91440 -0.00129 
-0.00176 0.91440 0.00096 
-0.00363 0.91440 0.00272 
-0.00586 0.91440 0.00459 
-0.00733 0.91440 0.00706 
-0.00777 0.91440 0.00916 
-0.01009 0.91440 0.01335 
-0.00981 0.91440 0.01682 
-0.00887 0.91440 0.02025 
-0.00710 0.91440 0.02335 
-0.00465 0.91440 0.02596 
-0.00167 0.91440 0.02810 
0.00339 0.91440 0.02702 
0.00906 0.91440 0.02368 
0.01278 0.91440 0.02285 
0.01567 0.91440 0.02352 
0.01851 0.91440 0.02420 
0.02134 0.91440 0.02486 
0.02416 0.91440 0.02550 
0.02698 0.91440 0.02611 
0.02981 0.91440 0.02670 
0.03263 0.91440 0.02729 
0.03547 0.91440 0.02782 
0.03831 0.91440 0.02831 
0.04116 0.91440 0.02876 
0.04401 0.91440 0.02918 
0.04687 0.91440 0.02956 
0.04974 0.91440 0.02991 
0.05260 0.91440 0.03023 
0.05547 0.91440 0.03052 
0.05835 0.91440 0.03078 
0.06122 0.91440 0.03103 
0.06410 0.91440 0.03124 
0.06697 0.91440 0.03144 
0.06985 0.91440 0.03162 
0.07273 0.91440 0.03178 
0.07562 0.91440 0.03191 
0.07850 0.91440 0.03203 
0.08138 0.91440 0.03214 
0.08426 0.91440 0.03223 
0.08715 0.91440 0.03230 
0.09003 0.91440 0.03235 
0.09283 0.91440 0.03239 
0.09576 0.91440 0.03242 
0.09885 0.91440 0.03244 
0.10208 0.91440 0.03244 
0.10548 0.91440 0.03242 
0.10905 0.91440 0.03239 
0.11280 0.91440 0.03233 
0.11673 0.91440 0.03225 
0.12086 0.91440 0.03215 
0.12519 0.91440 0.03202 
0.12975 0.91440 0.03185 
0.13452 0.91440 0.03166 
0.13954 0.91440 0.03143 
0.14480 0.91440 0.03116 
0.15006 0.91440 0.03086 
0.15532 0.91440 0.03054 
0.16058 0.91440 0.03019 
0.16583 0.91440 0.02981 
0.17108 0.91440 0.02942 
0.17633 0.91440 0.02900 
0.18158 0.91440 0.02856 
0.18683 0.91440 0.02811 
0.19207 0.91440 0.02763 
0.19732 0.91440 0.02713 
0.20256 0.91440 0.02662 
0.20780 0.91440 0.02609 
0.21304 0.91440 0.02554 
0.21827 0.91440 0.02498 
0.22351 0.91440 0.02440 
0.22874 0.91440 0.02380 
0.23397 0.91440 0.02320 
0.23920 0.91440 0.02257 
0.24443 0.91440 0.02194 
0.24966 0.91440 0.02129 
0.25489 0.91440 0.02063 
0.26011 0.91440 0.01995 
0.26533 0.91440 0.01927 
0.27055 0.91440 0.01857 
0.27577 0.91440 0.01786 
0.28099 0.91440 0.01715 
0.28621 0.91440 0.01642 
0.29142 0.91440 0.01568 
0.29663 0.91440 0.01493 
0.30185 0.91440 0.01417 
0.30706 0.91440 0.01340 
0.31227 0.91440 0.01262 
0.31747 0.91440 0.01184 
0.32268 0.91440 0.01104 
0.32789 0.91440 0.01024 
0.33309 0.91440 0.00943 
0.33829 0.91440 0.00861 
0.34349 0.91440 0.00778 
0.34870 0.91440 0.00695 
0.35389 0.91440 0.00611 
0.35909 0.91440 0.00526 
0.36429 0.91440 0.00440 
0.36948 0.91440 0.00354 
0.37468 0.91440 0.00266 
0.37987 0.91440 0.00179 
0.38506 0.91440 0.00090 
0.39026 0.91440 0.00001 
0.39544 0.91440 -0.00089 
0.40063 0.91440 -0.00180 
0.40582 0.91440 -0.00271 
0.41101 0.91440 -0.00363 
0.41619 0.91440 -0.00456 
0.42138 0.91440 -0.00549 
0.42656 0.91440 -0.00643 
0.43174 0.91440 -0.00738 
0.43692 0.91440 -0.00833 
0.44210 0.91440 -0.00929 
0.44728 0.91440 -0.01026 
0.45245 0.91440 -0.01123 
0.45763 0.91440 -0.01221 
0.46280 0.91440 -0.01320 
0.46797 0.91440 -0.01419 
0.47314 0.91440 -0.01519 
0.47831 0.91440 -0.01620 
0.48348 0.91440 -0.01722 
0.48865 0.91440 -0.01824 
0.49381 0.91440 -0.01927 
0.49898 0.91440 -0.02031 
0.50414 0.91440 -0.02135 
0.50930 0.91440 -0.02240 
0.51446 0.91440 -0.02346 
0.51962 0.91440 -0.02453 
0.52477 0.91440 -0.02561 
0.52859 0.91440 -0.02641 
0.53098 0.91440 -0.02692 
0.53247 0.91440 -0.02724 
0.53246 0.91440 -0.02738 
0.53245 0.91440 -0.02753 
0.53244 0.91440 -0.02768 
0.53243 0.91440 -0.02783 
0.53242 0.91440 -0.02798 

