#+++++++++++++++++++++++++++++++++++++++++++++++++++++++++++++++++++++++++++++++++++++++++++++++++++++++++++++++++++++++++++++++++
#
#   IPW-3 Cut/Slice DATA SUBMITTAL FORM for Test Case NACA0012_AE3933, May 18th 2026
#
#       NOMENCLATURE:
#                  X [m]:  X-coordinate of the surface (clean for reference)
#                  Y [m]:  Y-coordinate of the surface (clean for reference)
#                  Z [m]:  Z-coordinate of the surface (clean for reference)
#                 Cp [-]:  Pressure coefficient
#            HTC [W/m2K]:  Convective Heat Transfer Coefficient (on the rough surface)
#               Beta [-]:  Collection efficiency
#                 Ts [K]:  Surface temperature
#                 FF [-]:  Freezing fraction
#                  k [m]:  Surface roughness height if variable (OPTIONAL)
#         RhoIce [kg/m3]:  Ice density (OPTIONAL)
#      HTC_CLEAN [W/m2K]:  Convective Heat Transfer Coefficient on the surface without roughness (OPTIONAL)
#
#                XXmm:  Roughness height used for the case, in mm.
#                       In the zone name, use the format KS_XXmm.
#                       For example, if k_s = 1.5 mm, use KS_1p5mm. 
#                       For Variable roughness, use KS_VAR
#
#    FLOW CONDITIONS:
#                                   AOA: 4.0 deg
#                           Mach Number: 0.3127 [-]
#       Mean aerodynamic chord (M.A.C.): 0.5334 [m]
#                       Reynolds Number: 3.8947 million (based on MAC)
#                       Freestream Temp: 270.95 [K]
#                        Reference area: 0.97548 [m2]
#               Moment Reference Center: 0.13335, 0, 0 [m] (X, Y, Z)
#
#    ICING CONDITIONS:
#                           Icing Time: 420 [s]
#                                  LWC: 0.55 [g/m3]
#                                  MVD: 20 [μm]
#
#              NOTES: 1. Please use at least 5 decimal places in the numerical values
#                     2. If data are NOT provided, please fill data fields with a numerical value of "-999" 
#
#++++++++++++++++++++++++++++++++++++++++++++++++++++++++++++++++++++++++++++++++++++++++++++++++++++++++++++++++++++

VARIABLES = "X" "Y" "Z" "Cp" "HTC" "Beta" "Ts" "FF" "k" "RhoIce" "HTC_CLEAN"
ZONE T="SLICE_Y_0p9144_BINS01_KS_0p5334mm_CUTDATA"
0.53086 0.91440 -0.02868 0.18313 308.93116 0.00000 270.52148 1.00000 -999.00000 -999.00000 -999.00000 
0.53086 0.91440 -0.02868 0.18313 308.92844 0.00000 270.52148 1.00000 -999.00000 -999.00000 -999.00000 
0.52843 0.91440 -0.02885 0.15879 312.29870 0.00000 270.50967 1.00000 -999.00000 -999.00000 -999.00000 
0.52843 0.91440 -0.02885 0.15879 312.29871 0.00000 270.50967 1.00000 -999.00000 -999.00000 -999.00000 
0.52453 0.91440 -0.02911 0.14340 315.40356 0.00000 270.49924 1.00000 -999.00000 -999.00000 -999.00000 
0.52453 0.91440 -0.02911 0.14340 315.40356 0.00000 270.49924 1.00000 -999.00000 -999.00000 -999.00000 
0.51931 0.91440 -0.02946 0.12631 318.38012 0.00000 270.48981 1.00000 -999.00000 -999.00000 -999.00000 
0.51931 0.91440 -0.02946 0.12631 318.38013 0.00000 270.48981 1.00000 -999.00000 -999.00000 -999.00000 
0.51409 0.91440 -0.02980 0.11061 321.30129 0.00000 270.48080 1.00000 -999.00000 -999.00000 -999.00000 
0.51409 0.91440 -0.02980 0.11061 321.30130 0.00000 270.48080 1.00000 -999.00000 -999.00000 -999.00000 
0.50887 0.91440 -0.03013 0.09700 323.94708 0.00000 270.47284 1.00000 -999.00000 -999.00000 -999.00000 
0.50887 0.91440 -0.03013 0.09700 323.94708 0.00000 270.47284 1.00000 -999.00000 -999.00000 -999.00000 
0.50365 0.91440 -0.03045 0.08504 326.34490 0.00000 270.46588 1.00000 -999.00000 -999.00000 -999.00000 
0.50365 0.91440 -0.03045 0.08504 326.34491 0.00000 270.46588 1.00000 -999.00000 -999.00000 -999.00000 
0.49843 0.91440 -0.03077 0.07436 328.55093 0.00000 270.45963 1.00000 -999.00000 -999.00000 -999.00000 
0.49843 0.91440 -0.03077 0.07436 328.55093 0.00000 270.45963 1.00000 -999.00000 -999.00000 -999.00000 
0.49321 0.91440 -0.03107 0.06476 330.60458 0.00000 270.45404 1.00000 -999.00000 -999.00000 -999.00000 
0.49321 0.91440 -0.03107 0.06476 330.60458 0.00000 270.45404 1.00000 -999.00000 -999.00000 -999.00000 
0.48799 0.91440 -0.03137 0.05601 332.53656 0.00000 270.44891 1.00000 -999.00000 -999.00000 -999.00000 
0.48799 0.91440 -0.03137 0.05601 332.53656 0.00000 270.44891 1.00000 -999.00000 -999.00000 -999.00000 
0.48277 0.91440 -0.03166 0.04798 334.37085 0.00000 270.44424 1.00000 -999.00000 -999.00000 -999.00000 
0.48277 0.91440 -0.03166 0.04798 334.37085 0.00000 270.44424 1.00000 -999.00000 -999.00000 -999.00000 
0.47754 0.91440 -0.03195 0.04056 336.12478 0.00000 270.43991 1.00000 -999.00000 -999.00000 -999.00000 
0.47754 0.91440 -0.03195 0.04056 336.12479 0.00000 270.43991 1.00000 -999.00000 -999.00000 -999.00000 
0.47232 0.91440 -0.03223 0.03366 337.81167 0.00000 270.43591 1.00000 -999.00000 -999.00000 -999.00000 
0.47232 0.91440 -0.03223 0.03366 337.81168 0.00000 270.43591 1.00000 -999.00000 -999.00000 -999.00000 
0.46710 0.91440 -0.03250 0.02722 339.44253 0.00000 270.43213 1.00000 -999.00000 -999.00000 -999.00000 
0.46710 0.91440 -0.03250 0.02722 339.44254 0.00000 270.43213 1.00000 -999.00000 -999.00000 -999.00000 
0.46187 0.91440 -0.03276 0.02117 341.02652 0.00000 270.42862 1.00000 -999.00000 -999.00000 -999.00000 
0.46187 0.91440 -0.03276 0.02117 341.02652 0.00000 270.42862 1.00000 -999.00000 -999.00000 -999.00000 
0.45665 0.91440 -0.03302 0.01548 342.57095 0.00000 270.42529 1.00000 -999.00000 -999.00000 -999.00000 
0.45665 0.91440 -0.03302 0.01548 342.57095 0.00000 270.42529 1.00000 -999.00000 -999.00000 -999.00000 
0.45143 0.91440 -0.03327 0.01009 344.08215 0.00000 270.42215 1.00000 -999.00000 -999.00000 -999.00000 
0.45143 0.91440 -0.03327 0.01009 344.08215 0.00000 270.42215 1.00000 -999.00000 -999.00000 -999.00000 
0.44620 0.91440 -0.03351 0.00498 345.56537 0.00000 270.41919 1.00000 -999.00000 -999.00000 -999.00000 
0.44620 0.91440 -0.03351 0.00498 345.56537 0.00000 270.41919 1.00000 -999.00000 -999.00000 -999.00000 
0.44098 0.91440 -0.03374 0.00012 347.02527 0.00000 270.41632 1.00000 -999.00000 -999.00000 -999.00000 
0.44098 0.91440 -0.03374 0.00012 347.02527 0.00000 270.41632 1.00000 -999.00000 -999.00000 -999.00000 
0.43575 0.91440 -0.03397 -0.00452 348.46627 0.00000 270.41364 1.00000 -999.00000 -999.00000 -999.00000 
0.43575 0.91440 -0.03397 -0.00452 348.46628 0.00000 270.41364 1.00000 -999.00000 -999.00000 -999.00000 
0.43052 0.91440 -0.03420 -0.00896 349.89227 0.00000 270.41104 1.00000 -999.00000 -999.00000 -999.00000 
0.43052 0.91440 -0.03420 -0.00896 349.89227 0.00000 270.41104 1.00000 -999.00000 -999.00000 -999.00000 
0.42530 0.91440 -0.03441 -0.01323 351.30642 0.00000 270.40854 1.00000 -999.00000 -999.00000 -999.00000 
0.42530 0.91440 -0.03441 -0.01323 351.30643 0.00000 270.40854 1.00000 -999.00000 -999.00000 -999.00000 
0.42007 0.91440 -0.03462 -0.01733 352.71124 0.00000 270.40613 1.00000 -999.00000 -999.00000 -999.00000 
0.42007 0.91440 -0.03462 -0.01733 352.71124 0.00000 270.40613 1.00000 -999.00000 -999.00000 -999.00000 
0.41484 0.91440 -0.03482 -0.02129 354.10891 0.00000 270.40384 1.00000 -999.00000 -999.00000 -999.00000 
0.41484 0.91440 -0.03482 -0.02129 354.10892 0.00000 270.40384 1.00000 -999.00000 -999.00000 -999.00000 
0.40962 0.91440 -0.03502 -0.02511 355.50168 0.00000 270.40161 1.00000 -999.00000 -999.00000 -999.00000 
0.40962 0.91440 -0.03502 -0.02511 355.50168 0.00000 270.40161 1.00000 -999.00000 -999.00000 -999.00000 
0.40439 0.91440 -0.03521 -0.02880 356.89178 0.00000 270.39944 1.00000 -999.00000 -999.00000 -999.00000 
0.40439 0.91440 -0.03521 -0.02880 356.89178 0.00000 270.39944 1.00000 -999.00000 -999.00000 -999.00000 
0.39916 0.91440 -0.03539 -0.03238 358.28119 0.00000 270.39737 1.00000 -999.00000 -999.00000 -999.00000 
0.39916 0.91440 -0.03539 -0.03238 358.28119 0.00000 270.39737 1.00000 -999.00000 -999.00000 -999.00000 
0.39394 0.91440 -0.03556 -0.03586 359.67209 0.00000 270.39532 1.00000 -999.00000 -999.00000 -999.00000 
0.39394 0.91440 -0.03556 -0.03586 359.67209 0.00000 270.39532 1.00000 -999.00000 -999.00000 -999.00000 
0.38871 0.91440 -0.03573 -0.03925 361.06665 0.00000 270.39334 1.00000 -999.00000 -999.00000 -999.00000 
0.38871 0.91440 -0.03573 -0.03925 361.06665 0.00000 270.39334 1.00000 -999.00000 -999.00000 -999.00000 
0.38348 0.91440 -0.03589 -0.04256 362.46643 0.00000 270.39142 1.00000 -999.00000 -999.00000 -999.00000 
0.38348 0.91440 -0.03589 -0.04256 362.46643 0.00000 270.39142 1.00000 -999.00000 -999.00000 -999.00000 
0.37825 0.91440 -0.03605 -0.04579 363.87188 0.00000 270.38953 1.00000 -999.00000 -999.00000 -999.00000 
0.37825 0.91440 -0.03605 -0.04579 363.87189 0.00000 270.38953 1.00000 -999.00000 -999.00000 -999.00000 
0.37302 0.91440 -0.03620 -0.04893 365.28405 0.00000 270.38770 1.00000 -999.00000 -999.00000 -999.00000 
0.37302 0.91440 -0.03620 -0.04893 365.28406 0.00000 270.38770 1.00000 -999.00000 -999.00000 -999.00000 
0.36779 0.91440 -0.03634 -0.05201 366.70501 0.00000 270.38589 1.00000 -999.00000 -999.00000 -999.00000 
0.36779 0.91440 -0.03634 -0.05201 366.70502 0.00000 270.38589 1.00000 -999.00000 -999.00000 -999.00000 
0.36257 0.91440 -0.03647 -0.05503 368.13672 0.00000 270.38412 1.00000 -999.00000 -999.00000 -999.00000 
0.36257 0.91440 -0.03647 -0.05503 368.13672 0.00000 270.38412 1.00000 -999.00000 -999.00000 -999.00000 
0.35734 0.91440 -0.03660 -0.05799 369.58029 0.00000 270.38239 1.00000 -999.00000 -999.00000 -999.00000 
0.35734 0.91440 -0.03660 -0.05799 369.58029 0.00000 270.38239 1.00000 -999.00000 -999.00000 -999.00000 
0.35211 0.91440 -0.03672 -0.06090 371.03625 0.00000 270.38071 1.00000 -999.00000 -999.00000 -999.00000 
0.35211 0.91440 -0.03672 -0.06090 371.03625 0.00000 270.38071 1.00000 -999.00000 -999.00000 -999.00000 
0.34688 0.91440 -0.03683 -0.06375 372.50528 0.00000 270.37903 1.00000 -999.00000 -999.00000 -999.00000 
0.34688 0.91440 -0.03683 -0.06375 372.50528 0.00000 270.37903 1.00000 -999.00000 -999.00000 -999.00000 
0.34165 0.91440 -0.03693 -0.06655 373.98852 0.00000 270.37738 1.00000 -999.00000 -999.00000 -999.00000 
0.34165 0.91440 -0.03693 -0.06655 373.98853 0.00000 270.37738 1.00000 -999.00000 -999.00000 -999.00000 
0.33642 0.91440 -0.03703 -0.06931 375.48755 0.00000 270.37579 1.00000 -999.00000 -999.00000 -999.00000 
0.33642 0.91440 -0.03703 -0.06931 375.48755 0.00000 270.37579 1.00000 -999.00000 -999.00000 -999.00000 
0.33119 0.91440 -0.03712 -0.07202 377.00354 0.00000 270.37421 1.00000 -999.00000 -999.00000 -999.00000 
0.33119 0.91440 -0.03712 -0.07202 377.00354 0.00000 270.37421 1.00000 -999.00000 -999.00000 -999.00000 
0.32596 0.91440 -0.03720 -0.07469 378.53741 0.00000 270.37262 1.00000 -999.00000 -999.00000 -999.00000 
0.32596 0.91440 -0.03720 -0.07469 378.53741 0.00000 270.37262 1.00000 -999.00000 -999.00000 -999.00000 
0.32073 0.91440 -0.03727 -0.07731 380.08987 0.00000 270.37109 1.00000 -999.00000 -999.00000 -999.00000 
0.32073 0.91440 -0.03727 -0.07731 380.08987 0.00000 270.37109 1.00000 -999.00000 -999.00000 -999.00000 
0.31550 0.91440 -0.03733 -0.07989 381.66183 0.00000 270.36957 1.00000 -999.00000 -999.00000 -999.00000 
0.31550 0.91440 -0.03733 -0.07989 381.66183 0.00000 270.36957 1.00000 -999.00000 -999.00000 -999.00000 
0.31027 0.91440 -0.03739 -0.08243 383.25415 0.00000 270.36810 1.00000 -999.00000 -999.00000 -999.00000 
0.31027 0.91440 -0.03739 -0.08243 383.25415 0.00000 270.36810 1.00000 -999.00000 -999.00000 -999.00000 
0.30504 0.91440 -0.03743 -0.08492 384.86798 0.00000 270.36667 1.00000 -999.00000 -999.00000 -999.00000 
0.30504 0.91440 -0.03743 -0.08492 384.86798 0.00000 270.36667 1.00000 -999.00000 -999.00000 -999.00000 
0.29981 0.91440 -0.03747 -0.08737 386.50427 0.00000 270.36523 1.00000 -999.00000 -999.00000 -999.00000 
0.29981 0.91440 -0.03747 -0.08737 386.50427 0.00000 270.36523 1.00000 -999.00000 -999.00000 -999.00000 
0.29458 0.91440 -0.03750 -0.08977 388.16406 0.00000 270.36380 1.00000 -999.00000 -999.00000 -999.00000 
0.29458 0.91440 -0.03750 -0.08977 388.16406 0.00000 270.36380 1.00000 -999.00000 -999.00000 -999.00000 
0.28935 0.91440 -0.03752 -0.09213 389.84820 0.00000 270.36243 1.00000 -999.00000 -999.00000 -999.00000 
0.28935 0.91440 -0.03752 -0.09213 389.84821 0.00000 270.36243 1.00000 -999.00000 -999.00000 -999.00000 
0.28412 0.91440 -0.03753 -0.09443 391.55761 0.00000 270.36108 1.00000 -999.00000 -999.00000 -999.00000 
0.28412 0.91440 -0.03753 -0.09443 391.55762 0.00000 270.36108 1.00000 -999.00000 -999.00000 -999.00000 
0.27889 0.91440 -0.03753 -0.09669 393.29324 0.00000 270.35977 1.00000 -999.00000 -999.00000 -999.00000 
0.27889 0.91440 -0.03753 -0.09669 393.29324 0.00000 270.35977 1.00000 -999.00000 -999.00000 -999.00000 
0.27366 0.91440 -0.03752 -0.09889 395.05603 0.00000 270.35846 1.00000 -999.00000 -999.00000 -999.00000 
0.27366 0.91440 -0.03752 -0.09889 395.05603 0.00000 270.35846 1.00000 -999.00000 -999.00000 -999.00000 
0.26843 0.91440 -0.03750 -0.10104 396.84713 0.00000 270.35721 1.00000 -999.00000 -999.00000 -999.00000 
0.26843 0.91440 -0.03750 -0.10104 396.84714 0.00000 270.35721 1.00000 -999.00000 -999.00000 -999.00000 
0.26320 0.91440 -0.03746 -0.10312 398.66751 0.00000 270.35602 1.00000 -999.00000 -999.00000 -999.00000 
0.26320 0.91440 -0.03746 -0.10312 398.66751 0.00000 270.35602 1.00000 -999.00000 -999.00000 -999.00000 
0.25797 0.91440 -0.03742 -0.10514 400.51834 0.00000 270.35483 1.00000 -999.00000 -999.00000 -999.00000 
0.25797 0.91440 -0.03742 -0.10514 400.51834 0.00000 270.35483 1.00000 -999.00000 -999.00000 -999.00000 
0.25273 0.91440 -0.03736 -0.10709 402.40072 0.00000 270.35367 1.00000 -999.00000 -999.00000 -999.00000 
0.25273 0.91440 -0.03736 -0.10709 402.40073 0.00000 270.35367 1.00000 -999.00000 -999.00000 -999.00000 
0.24750 0.91440 -0.03730 -0.10897 404.31597 0.00000 270.35257 1.00000 -999.00000 -999.00000 -999.00000 
0.24750 0.91440 -0.03730 -0.10897 404.31598 0.00000 270.35257 1.00000 -999.00000 -999.00000 -999.00000 
0.24227 0.91440 -0.03722 -0.11077 406.26532 0.00000 270.35150 1.00000 -999.00000 -999.00000 -999.00000 
0.24227 0.91440 -0.03722 -0.11077 406.26532 0.00000 270.35150 1.00000 -999.00000 -999.00000 -999.00000 
0.23705 0.91440 -0.03712 -0.11249 408.25009 0.00000 270.35049 1.00000 -999.00000 -999.00000 -999.00000 
0.23705 0.91440 -0.03712 -0.11249 408.25009 0.00000 270.35049 1.00000 -999.00000 -999.00000 -999.00000 
0.23182 0.91440 -0.03702 -0.11412 410.27154 0.00000 270.34955 1.00000 -999.00000 -999.00000 -999.00000 
0.23182 0.91440 -0.03702 -0.11412 410.27155 0.00000 270.34955 1.00000 -999.00000 -999.00000 -999.00000 
0.22659 0.91440 -0.03690 -0.11565 412.33105 0.00000 270.34866 1.00000 -999.00000 -999.00000 -999.00000 
0.22659 0.91440 -0.03690 -0.11565 412.33105 0.00000 270.34866 1.00000 -999.00000 -999.00000 -999.00000 
0.22136 0.91440 -0.03677 -0.11708 414.42999 0.00000 270.34784 1.00000 -999.00000 -999.00000 -999.00000 
0.22136 0.91440 -0.03677 -0.11708 414.42999 0.00000 270.34784 1.00000 -999.00000 -999.00000 -999.00000 
0.21613 0.91440 -0.03662 -0.11839 416.56982 0.00000 270.34705 1.00000 -999.00000 -999.00000 -999.00000 
0.21613 0.91440 -0.03662 -0.11839 416.56982 0.00000 270.34705 1.00000 -999.00000 -999.00000 -999.00000 
0.21090 0.91440 -0.03646 -0.11958 418.75213 0.00000 270.34637 1.00000 -999.00000 -999.00000 -999.00000 
0.21090 0.91440 -0.03646 -0.11958 418.75214 0.00000 270.34637 1.00000 -999.00000 -999.00000 -999.00000 
0.20567 0.91440 -0.03628 -0.12063 420.97851 0.00000 270.34576 1.00000 -999.00000 -999.00000 -999.00000 
0.20567 0.91440 -0.03628 -0.12063 420.97852 0.00000 270.34576 1.00000 -999.00000 -999.00000 -999.00000 
0.20045 0.91440 -0.03608 -0.12155 423.25100 0.00000 270.34521 1.00000 -999.00000 -999.00000 -999.00000 
0.20045 0.91440 -0.03608 -0.12155 423.25101 0.00000 270.34521 1.00000 -999.00000 -999.00000 -999.00000 
0.19522 0.91440 -0.03587 -0.12231 425.57135 0.00000 270.34479 1.00000 -999.00000 -999.00000 -999.00000 
0.19522 0.91440 -0.03587 -0.12231 425.57135 0.00000 270.34479 1.00000 -999.00000 -999.00000 -999.00000 
0.19000 0.91440 -0.03564 -0.12289 427.94024 0.00000 270.34442 1.00000 -999.00000 -999.00000 -999.00000 
0.19000 0.91440 -0.03564 -0.12289 427.94025 0.00000 270.34442 1.00000 -999.00000 -999.00000 -999.00000 
0.18477 0.91440 -0.03539 -0.12326 430.35903 0.00000 270.34421 1.00000 -999.00000 -999.00000 -999.00000 
0.18477 0.91440 -0.03539 -0.12326 430.35904 0.00000 270.34421 1.00000 -999.00000 -999.00000 -999.00000 
0.17955 0.91440 -0.03513 -0.12343 432.83099 0.00000 270.34412 1.00000 -999.00000 -999.00000 -999.00000 
0.17955 0.91440 -0.03513 -0.12343 432.83099 0.00000 270.34412 1.00000 -999.00000 -999.00000 -999.00000 
0.17432 0.91440 -0.03484 -0.12339 435.35931 0.00000 270.34415 1.00000 -999.00000 -999.00000 -999.00000 
0.17432 0.91440 -0.03484 -0.12339 435.35931 0.00000 270.34415 1.00000 -999.00000 -999.00000 -999.00000 
0.16910 0.91440 -0.03454 -0.12310 437.94595 0.00000 270.34433 1.00000 -999.00000 -999.00000 -999.00000 
0.16910 0.91440 -0.03454 -0.12310 437.94595 0.00000 270.34433 1.00000 -999.00000 -999.00000 -999.00000 
0.16388 0.91440 -0.03421 -0.12255 440.59332 0.00000 270.34467 1.00000 -999.00000 -999.00000 -999.00000 
0.16388 0.91440 -0.03421 -0.12255 440.59332 0.00000 270.34467 1.00000 -999.00000 -999.00000 -999.00000 
0.15866 0.91440 -0.03386 -0.12171 443.30486 0.00000 270.34515 1.00000 -999.00000 -999.00000 -999.00000 
0.15866 0.91440 -0.03386 -0.12171 443.30487 0.00000 270.34515 1.00000 -999.00000 -999.00000 -999.00000 
0.15345 0.91440 -0.03349 -0.12056 446.08447 0.00000 270.34583 1.00000 -999.00000 -999.00000 -999.00000 
0.15345 0.91440 -0.03349 -0.12056 446.08447 0.00000 270.34583 1.00000 -999.00000 -999.00000 -999.00000 
0.14823 0.91440 -0.03309 -0.11909 448.93432 0.00000 270.34668 1.00000 -999.00000 -999.00000 -999.00000 
0.14823 0.91440 -0.03309 -0.11909 448.93433 0.00000 270.34668 1.00000 -999.00000 -999.00000 -999.00000 
0.14302 0.91440 -0.03267 -0.11720 451.85421 0.00000 270.34781 1.00000 -999.00000 -999.00000 -999.00000 
0.14302 0.91440 -0.03267 -0.11720 451.85422 0.00000 270.34781 1.00000 -999.00000 -999.00000 -999.00000 
0.13781 0.91440 -0.03223 -0.11486 454.85354 0.00000 270.34915 1.00000 -999.00000 -999.00000 -999.00000 
0.13781 0.91440 -0.03223 -0.11486 454.85355 0.00000 270.34915 1.00000 -999.00000 -999.00000 -999.00000 
0.13258 0.91440 -0.03175 -0.11222 457.95593 0.00000 270.35071 1.00000 -999.00000 -999.00000 -999.00000 
0.13258 0.91440 -0.03175 -0.11222 457.95593 0.00000 270.35071 1.00000 -999.00000 -999.00000 -999.00000 
0.12761 0.91440 -0.03127 -0.10922 461.08080 0.00000 270.35248 1.00000 -999.00000 -999.00000 -999.00000 
0.12761 0.91440 -0.03127 -0.10922 461.08081 0.00000 270.35248 1.00000 -999.00000 -999.00000 -999.00000 
0.12288 0.91440 -0.03079 -0.10581 464.13580 0.00000 270.35446 1.00000 -999.00000 -999.00000 -999.00000 
0.12288 0.91440 -0.03079 -0.10581 464.13580 0.00000 270.35446 1.00000 -999.00000 -999.00000 -999.00000 
0.11837 0.91440 -0.03030 -0.10213 467.12689 0.00000 270.35663 1.00000 -999.00000 -999.00000 -999.00000 
0.11837 0.91440 -0.03030 -0.10213 467.12689 0.00000 270.35663 1.00000 -999.00000 -999.00000 -999.00000 
0.11408 0.91440 -0.02982 -0.09818 470.05712 0.00000 270.35892 1.00000 -999.00000 -999.00000 -999.00000 
0.11408 0.91440 -0.02982 -0.09818 470.05713 0.00000 270.35892 1.00000 -999.00000 -999.00000 -999.00000 
0.11000 0.91440 -0.02934 -0.09398 472.92501 0.00000 270.36139 1.00000 -999.00000 -999.00000 -999.00000 
0.11000 0.91440 -0.02934 -0.09398 472.92502 0.00000 270.36139 1.00000 -999.00000 -999.00000 -999.00000 
0.10611 0.91440 -0.02886 -0.08953 475.72918 0.00000 270.36395 1.00000 -999.00000 -999.00000 -999.00000 
0.10611 0.91440 -0.02886 -0.08953 475.72919 0.00000 270.36395 1.00000 -999.00000 -999.00000 -999.00000 
0.10242 0.91440 -0.02838 -0.08486 478.46963 0.00000 270.36670 1.00000 -999.00000 -999.00000 -999.00000 
0.10242 0.91440 -0.02838 -0.08486 478.46964 0.00000 270.36670 1.00000 -999.00000 -999.00000 -999.00000 
0.09890 0.91440 -0.02791 -0.07998 481.14617 0.00000 270.36954 1.00000 -999.00000 -999.00000 -999.00000 
0.09890 0.91440 -0.02791 -0.07998 481.14618 0.00000 270.36954 1.00000 -999.00000 -999.00000 -999.00000 
0.09555 0.91440 -0.02745 -0.07491 483.75884 0.00000 270.37250 1.00000 -999.00000 -999.00000 -999.00000 
0.09555 0.91440 -0.02745 -0.07491 483.75885 0.00000 270.37250 1.00000 -999.00000 -999.00000 -999.00000 
0.09236 0.91440 -0.02699 -0.06967 486.31002 0.00000 270.37558 1.00000 -999.00000 -999.00000 -999.00000 
0.09236 0.91440 -0.02699 -0.06967 486.31003 0.00000 270.37558 1.00000 -999.00000 -999.00000 -999.00000 
0.08933 0.91440 -0.02653 -0.06431 488.79339 0.00000 270.37872 1.00000 -999.00000 -999.00000 -999.00000 
0.08933 0.91440 -0.02653 -0.06431 488.79340 0.00000 270.37872 1.00000 -999.00000 -999.00000 -999.00000 
0.08933 0.91440 -0.02653 -0.06431 488.79340 0.00000 270.37872 1.00000 -999.00000 -999.00000 -999.00000 
0.08644 0.91440 -0.02609 -0.05865 491.18958 0.00000 270.38205 1.00000 -999.00000 -999.00000 -999.00000 
0.08644 0.91440 -0.02609 -0.05865 491.18958 0.00000 270.38205 1.00000 -999.00000 -999.00000 -999.00000 
0.08358 0.91440 -0.02563 -0.05265 493.55753 0.00000 270.38556 1.00000 -999.00000 -999.00000 -999.00000 
0.08358 0.91440 -0.02563 -0.05265 493.55753 0.00000 270.38556 1.00000 -999.00000 -999.00000 -999.00000 
0.08072 0.91440 -0.02516 -0.04634 495.97815 0.00000 270.38928 1.00000 -999.00000 -999.00000 -999.00000 
0.08072 0.91440 -0.02516 -0.04634 495.97815 0.00000 270.38928 1.00000 -999.00000 -999.00000 -999.00000 
0.07786 0.91440 -0.02467 -0.03955 498.45459 0.00000 270.39325 1.00000 -999.00000 -999.00000 -999.00000 
0.07786 0.91440 -0.02467 -0.03955 498.45460 0.00000 270.39325 1.00000 -999.00000 -999.00000 -999.00000 
0.07501 0.91440 -0.02417 -0.03220 500.97955 0.00000 270.39752 1.00000 -999.00000 -999.00000 -999.00000 
0.07501 0.91440 -0.02417 -0.03220 500.97956 0.00000 270.39752 1.00000 -999.00000 -999.00000 -999.00000 
0.07216 0.91440 -0.02365 -0.02429 503.55756 0.00005 270.38522 1.00000 -999.00000 -999.00000 -999.00000 
0.07216 0.91440 -0.02365 -0.02429 503.55756 0.00005 270.38522 1.00000 -999.00000 -999.00000 -999.00000 
0.06931 0.91440 -0.02311 -0.01579 506.19492 0.00131 270.03848 1.00000 -999.00000 -999.00000 -999.00000 
0.06931 0.91440 -0.02311 -0.01579 506.19492 0.00131 270.03848 1.00000 -999.00000 -999.00000 -999.00000 
0.06646 0.91440 -0.02255 -0.00664 508.89252 0.00680 269.41721 1.00000 -999.00000 -999.00000 -999.00000 
0.06646 0.91440 -0.02255 -0.00664 508.89252 0.00680 269.41721 1.00000 -999.00000 -999.00000 -999.00000 
0.06362 0.91440 -0.02198 0.00325 511.64816 0.01616 269.23108 1.00000 -999.00000 -999.00000 -999.00000 
0.06362 0.91440 -0.02198 0.00325 511.64817 0.01616 269.23108 1.00000 -999.00000 -999.00000 -999.00000 
0.06079 0.91440 -0.02138 0.01394 514.46387 0.02473 269.65005 1.00000 -999.00000 -999.00000 -999.00000 
0.06079 0.91440 -0.02138 0.01394 514.46387 0.02473 269.65006 1.00000 -999.00000 -999.00000 -999.00000 
0.05795 0.91440 -0.02076 0.02549 517.34265 0.03110 271.55798 0.94841 -999.00000 -999.00000 -999.00000 
0.05795 0.91440 -0.02076 0.02549 517.34266 0.03110 271.55799 0.94841 -999.00000 -999.00000 -999.00000 
0.05513 0.91440 -0.02012 0.03800 520.28137 0.03651 273.14999 0.69537 -999.00000 -999.00000 -999.00000 
0.05513 0.91440 -0.02012 0.03800 520.28138 0.03651 273.14999 0.69537 -999.00000 -999.00000 -999.00000 
0.05230 0.91440 -0.01946 0.05162 523.27454 0.04313 273.14999 0.41920 -999.00000 -999.00000 -999.00000 
0.05230 0.91440 -0.01946 0.05162 523.27454 0.04313 273.14999 0.41920 -999.00000 -999.00000 -999.00000 
0.04949 0.91440 -0.01877 0.06646 526.32153 0.05423 273.14999 0.30627 -999.00000 -999.00000 -999.00000 
0.04949 0.91440 -0.01877 0.06646 526.32154 0.05423 273.14999 0.30627 -999.00000 -999.00000 -999.00000 
0.04668 0.91440 -0.01805 0.08263 529.41870 0.06957 273.14999 0.24556 -999.00000 -999.00000 -999.00000 
0.04668 0.91440 -0.01805 0.08263 529.41871 0.06957 273.14999 0.24556 -999.00000 -999.00000 -999.00000 
0.04388 0.91440 -0.01731 0.10035 532.55426 0.08534 273.14999 0.20852 -999.00000 -999.00000 -999.00000 
0.04388 0.91440 -0.01731 0.10035 532.55427 0.08534 273.14999 0.20852 -999.00000 -999.00000 -999.00000 
0.04109 0.91440 -0.01654 0.11981 535.71570 0.09876 273.14999 0.18376 -999.00000 -999.00000 -999.00000 
0.04109 0.91440 -0.01654 0.11981 535.71571 0.09876 273.14999 0.18376 -999.00000 -999.00000 -999.00000 
0.03830 0.91440 -0.01573 0.14123 538.88538 0.11144 273.14999 0.16600 -999.00000 -999.00000 -999.00000 
0.03830 0.91440 -0.01573 0.14123 538.88538 0.11144 273.14999 0.16600 -999.00000 -999.00000 -999.00000 
0.03553 0.91440 -0.01488 0.16495 542.02869 0.12629 273.14999 0.15283 -999.00000 -999.00000 -999.00000 
0.03553 0.91440 -0.01488 0.16496 542.02869 0.12629 273.14999 0.15283 -999.00000 -999.00000 -999.00000 
0.03277 0.91440 -0.01400 0.19137 545.09912 0.14359 273.14999 0.14305 -999.00000 -999.00000 -999.00000 
0.03277 0.91440 -0.01400 0.19137 545.09913 0.14359 273.14999 0.14305 -999.00000 -999.00000 -999.00000 
0.03002 0.91440 -0.01307 0.22087 548.03247 0.16354 273.14999 0.13591 -999.00000 -999.00000 -999.00000 
0.03002 0.91440 -0.01307 0.22087 548.03248 0.16354 273.14999 0.13591 -999.00000 -999.00000 -999.00000 
0.02729 0.91440 -0.01210 0.25408 550.73102 0.18438 273.14999 0.13090 -999.00000 -999.00000 -999.00000 
0.02729 0.91440 -0.01210 0.25408 550.73102 0.18438 273.14999 0.13090 -999.00000 -999.00000 -999.00000 
0.02458 0.91440 -0.01108 0.29163 553.05249 0.20452 273.14999 0.12754 -999.00000 -999.00000 -999.00000 
0.02458 0.91440 -0.01108 0.29163 553.05249 0.20452 273.14999 0.12754 -999.00000 -999.00000 -999.00000 
0.02189 0.91440 -0.00999 0.33442 554.76904 0.22820 273.14999 0.12568 -999.00000 -999.00000 -999.00000 
0.02189 0.91440 -0.00999 0.33442 554.76904 0.22820 273.14999 0.12568 -999.00000 -999.00000 -999.00000 
0.01923 0.91440 -0.00884 0.38365 555.51953 0.25876 273.14999 0.12548 -999.00000 -999.00000 -999.00000 
0.01923 0.91440 -0.00884 0.38365 555.51953 0.25876 273.14999 0.12548 -999.00000 -999.00000 -999.00000 
0.01660 0.91440 -0.00761 0.44067 554.73376 0.29446 273.14999 0.12722 -999.00000 -999.00000 -999.00000 
0.01660 0.91440 -0.00761 0.44067 554.73376 0.29446 273.14999 0.12722 -999.00000 -999.00000 -999.00000 
0.01402 0.91440 -0.00629 0.50732 551.43701 0.33367 273.14999 0.13124 -999.00000 -999.00000 -999.00000 
0.01402 0.91440 -0.00629 0.50732 551.43700 0.33367 273.14999 0.13124 -999.00000 -999.00000 -999.00000 
0.01150 0.91440 -0.00487 0.58587 543.87164 0.38007 273.14999 0.13827 -999.00000 -999.00000 -999.00000 
0.01150 0.91440 -0.00487 0.58587 543.87161 0.38007 273.14999 0.13827 -999.00000 -999.00000 -999.00000 
0.00905 0.91440 -0.00332 0.67887 529.30096 0.43916 273.14999 0.15024 -999.00000 -999.00000 -999.00000 
0.00905 0.91440 -0.00332 0.67887 529.30091 0.43916 273.14999 0.15024 -999.00000 -999.00000 -999.00000 
0.00672 0.91440 -0.00160 0.78479 506.12646 0.50688 273.14999 0.16502 -999.00000 -999.00000 -999.00000 
0.00672 0.91440 -0.00160 0.78479 506.12640 0.50688 273.14999 0.16502 -999.00000 -999.00000 -999.00000 
0.00474 0.91440 0.00013 0.89053 478.55710 0.57062 273.14999 0.18743 -999.00000 -999.00000 -999.00000 
0.00474 0.91440 0.00013 0.89053 478.55698 0.57062 273.14999 0.18743 -999.00000 -999.00000 -999.00000 
0.00318 0.91440 0.00178 0.97525 425.22827 0.62920 273.14999 0.23879 -999.00000 -999.00000 -999.00000 
0.00202 0.91440 0.00337 1.01596 372.43502 0.69171 273.14999 0.26148 -999.00000 -999.00000 -999.00000 
0.00202 0.91440 0.00337 1.01596 372.43491 0.69171 273.14999 0.26148 -999.00000 -999.00000 -999.00000 
0.00202 0.91440 0.00337 1.01596 372.43508 0.69171 273.14999 0.26148 -999.00000 -999.00000 -999.00000 
0.00117 0.91440 0.00490 0.98443 454.11633 0.74403 273.14999 0.21528 -999.00000 -999.00000 -999.00000 
0.00117 0.91440 0.00490 0.98443 454.11667 0.74403 273.14999 0.21528 -999.00000 -999.00000 -999.00000 
0.00063 0.91440 0.00638 0.85971 609.37781 0.75660 273.14999 0.16844 -999.00000 -999.00000 -999.00000 
0.00063 0.91440 0.00638 0.85971 609.37801 0.75660 273.14999 0.16844 -999.00000 -999.00000 -999.00000 
0.00035 0.91440 0.00785 0.62405 703.00635 0.72932 273.14999 0.14536 -999.00000 -999.00000 -999.00000 
0.00035 0.91440 0.00785 0.62405 703.00642 0.72932 273.14999 0.14536 -999.00000 -999.00000 -999.00000 
0.00032 0.91440 0.00930 0.47531 736.35107 0.70866 273.14999 0.13639 -999.00000 -999.00000 -999.00000 
0.00032 0.91440 0.00930 0.08662 736.35152 0.70866 273.14999 0.13639 -999.00000 -999.00000 -999.00000 
0.00055 0.91440 0.01073 -0.12098 942.08435 0.62574 273.14999 0.15979 -999.00000 -999.00000 -999.00000 
0.00055 0.91440 0.01073 -0.12098 942.08443 0.62574 273.14999 0.15979 -999.00000 -999.00000 -999.00000 
0.00103 0.91440 0.01214 -0.53254 979.98291 0.56331 273.14999 0.17205 -999.00000 -999.00000 -999.00000 
0.00103 0.91440 0.01214 -0.53254 979.98297 0.56331 273.14999 0.17205 -999.00000 -999.00000 -999.00000 
0.00176 0.91440 0.01352 -0.89668 1007.28040 0.48488 273.14999 0.19760 -999.00000 -999.00000 -999.00000 
0.00176 0.91440 0.01352 -0.89669 1007.28040 0.48488 273.14999 0.19760 -999.00000 -999.00000 -999.00000 
0.00280 0.91440 0.01492 -1.17131 1011.58826 0.37754 273.14999 0.23972 -999.00000 -999.00000 -999.00000 
0.00280 0.91440 0.01492 -1.17131 1011.58823 0.37754 273.14999 0.23972 -999.00000 -999.00000 -999.00000 
0.00417 0.91440 0.01632 -1.35676 999.32709 0.25506 273.14999 0.31461 -999.00000 -999.00000 -999.00000 
0.00417 0.91440 0.01632 -1.35676 999.32704 0.25506 273.14999 0.31461 -999.00000 -999.00000 -999.00000 
0.00592 0.91440 0.01774 -1.45876 975.86096 0.14350 273.14999 0.48088 -999.00000 -999.00000 -999.00000 
0.00592 0.91440 0.01774 -1.45876 975.86090 0.14350 273.14999 0.48088 -999.00000 -999.00000 -999.00000 
0.00809 0.91440 0.01916 -1.49559 946.21722 0.06093 272.27252 0.79891 -999.00000 -999.00000 -999.00000 
0.00809 0.91440 0.01916 -1.49559 946.21716 0.06093 272.27252 0.79891 -999.00000 -999.00000 -999.00000 