#+++++++++++++++++++++++++++++++++++++++++++++++++++++++++++++++++++++++++++++++++++++++++++++++++++++++++++++++++++++++++++++++++
#
#   IPW-3 Cut/Slice DATA SUBMITTAL FORM for Test Case NACA0012_AE3933, May 18th 2026
#
#       NOMENCLATURE:
#                  X [m]:  X-coordinate of the surface (clean for reference)
#                  Y [m]:  Y-coordinate of the surface (clean for reference)
#                  Z [m]:  Z-coordinate of the surface (clean for reference)
#                 Cp [-]:  Pressure coefficient
#            HTC [W/m2K]:  Convective Heat Transfer Coefficient (on the rough surface)
#               Beta [-]:  Collection efficiency
#                 Ts [K]:  Surface temperature
#                 FF [-]:  Freezing fraction
#                  k [m]:  Surface roughness height if variable (OPTIONAL)
#         RhoIce [kg/m3]:  Ice density (OPTIONAL)
#      HTC_CLEAN [W/m2K]:  Convective Heat Transfer Coefficient on the surface without roughness (OPTIONAL)
#
#                XXmm:  Roughness height used for the case, in mm.
#                       In the zone name, use the format KS_XXmm.
#                       For example, if k_s = 1.5 mm, use KS_1p5mm. 
#                       For Variable roughness, use KS_VAR
#
#    FLOW CONDITIONS:
#                                   AOA: 4.0 deg
#                           Mach Number: 0.3127 [-]
#       Mean aerodynamic chord (M.A.C.): 0.5334 [m]
#                       Reynolds Number: 3.8947 million (based on MAC)
#                       Freestream Temp: 270.95 [K]
#                        Reference area: 0.97548 [m2]
#               Moment Reference Center: 0.13335, 0, 0 [m] (X, Y, Z)
#
#    ICING CONDITIONS:
#                           Icing Time: 420 [s]
#                                  LWC: 0.55 [g/m3]
#                                  MVD: 20 [μm]
#
#              NOTES: 1. Please use at least 5 decimal places in the numerical values
#                     2. If data are NOT provided, please fill data fields with a numerical value of "-999" 
#
#++++++++++++++++++++++++++++++++++++++++++++++++++++++++++++++++++++++++++++++++++++++++++++++++++++++++++++++++++++

VARIABLES = "X" "Y" "Z" "Cp" "HTC" "Beta" "Ts" "FF" "k" "RhoIce" "HTC_CLEAN"
ZONE T="SLICE_Y_0p9144_BINS01_KS_0p5334mm_CUTDATA"
0.53213 0.91440 -0.02859 0.19936 305.91345 0.00000 270.53195 1.00000 -999.00000 -999.00000 -999.00000 
0.53213 0.91440 -0.02859 0.19936 305.91333 0.00000 270.53195 1.00000 -999.00000 -999.00000 -999.00000 
0.53172 0.91440 -0.02862 0.17637 308.77782 0.00000 270.52155 1.00000 -999.00000 -999.00000 -999.00000 
0.53172 0.91440 -0.02862 0.17637 308.77783 0.00000 270.52155 1.00000 -999.00000 -999.00000 -999.00000 
0.53107 0.91440 -0.02867 0.17416 310.14889 0.00000 270.51666 1.00000 -999.00000 -999.00000 -999.00000 
0.53107 0.91440 -0.02867 0.17416 310.14890 0.00000 270.51666 1.00000 -999.00000 -999.00000 -999.00000 
0.53003 0.91440 -0.02874 0.16770 311.13391 0.00000 270.51331 1.00000 -999.00000 -999.00000 -999.00000 
0.53003 0.91440 -0.02874 0.16770 311.13391 0.00000 270.51331 1.00000 -999.00000 -999.00000 -999.00000 
0.52837 0.91440 -0.02885 0.15967 312.53188 0.00000 270.50861 1.00000 -999.00000 -999.00000 -999.00000 
0.52837 0.91440 -0.02885 0.15967 312.53189 0.00000 270.50861 1.00000 -999.00000 -999.00000 -999.00000 
0.52580 0.91440 -0.02903 0.14963 314.22793 0.00000 270.50305 1.00000 -999.00000 -999.00000 -999.00000 
0.52580 0.91440 -0.02903 0.14963 314.22794 0.00000 270.50305 1.00000 -999.00000 -999.00000 -999.00000 
0.52324 0.91440 -0.02920 0.13944 316.02142 0.00000 270.49731 1.00000 -999.00000 -999.00000 -999.00000 
0.52324 0.91440 -0.02920 0.13944 316.02142 0.00000 270.49731 1.00000 -999.00000 -999.00000 -999.00000 
0.52067 0.91440 -0.02937 0.13015 317.71426 0.00000 270.49194 1.00000 -999.00000 -999.00000 -999.00000 
0.52067 0.91440 -0.02937 0.13015 317.71426 0.00000 270.49194 1.00000 -999.00000 -999.00000 -999.00000 
0.51810 0.91440 -0.02954 0.12172 319.27984 0.00000 270.48703 1.00000 -999.00000 -999.00000 -999.00000 
0.51810 0.91440 -0.02954 0.12172 319.27985 0.00000 270.48703 1.00000 -999.00000 -999.00000 -999.00000 
0.51553 0.91440 -0.02971 0.11395 320.73980 0.00000 270.48251 1.00000 -999.00000 -999.00000 -999.00000 
0.51553 0.91440 -0.02971 0.11395 320.73981 0.00000 270.48251 1.00000 -999.00000 -999.00000 -999.00000 
0.51296 0.91440 -0.02987 0.10675 322.11270 0.00000 270.47833 1.00000 -999.00000 -999.00000 -999.00000 
0.51296 0.91440 -0.02987 0.10675 322.11270 0.00000 270.47833 1.00000 -999.00000 -999.00000 -999.00000 
0.51039 0.91440 -0.03003 0.10003 323.41162 0.00000 270.47443 1.00000 -999.00000 -999.00000 -999.00000 
0.51039 0.91440 -0.03003 0.10003 323.41162 0.00000 270.47443 1.00000 -999.00000 -999.00000 -999.00000 
0.50782 0.91440 -0.03019 0.09374 324.64685 0.00000 270.47076 1.00000 -999.00000 -999.00000 -999.00000 
0.50782 0.91440 -0.03019 0.09374 324.64685 0.00000 270.47076 1.00000 -999.00000 -999.00000 -999.00000 
0.50525 0.91440 -0.03035 0.08782 325.82678 0.00000 270.46735 1.00000 -999.00000 -999.00000 -999.00000 
0.50525 0.91440 -0.03035 0.08782 325.82678 0.00000 270.46735 1.00000 -999.00000 -999.00000 -999.00000 
0.50268 0.91440 -0.03051 0.08222 326.95825 0.00000 270.46408 1.00000 -999.00000 -999.00000 -999.00000 
0.50268 0.91440 -0.03051 0.08222 326.95825 0.00000 270.46408 1.00000 -999.00000 -999.00000 -999.00000 
0.50011 0.91440 -0.03067 0.07693 328.04629 0.00000 270.46100 1.00000 -999.00000 -999.00000 -999.00000 
0.50011 0.91440 -0.03067 0.07693 328.04630 0.00000 270.46100 1.00000 -999.00000 -999.00000 -999.00000 
0.49754 0.91440 -0.03082 0.07191 329.09530 0.00000 270.45807 1.00000 -999.00000 -999.00000 -999.00000 
0.49754 0.91440 -0.03082 0.07191 329.09531 0.00000 270.45807 1.00000 -999.00000 -999.00000 -999.00000 
0.49497 0.91440 -0.03097 0.06714 330.10940 0.00000 270.45532 1.00000 -999.00000 -999.00000 -999.00000 
0.49497 0.91440 -0.03097 0.06714 330.10941 0.00000 270.45532 1.00000 -999.00000 -999.00000 -999.00000 
0.49240 0.91440 -0.03112 0.06259 331.09228 0.00000 270.45267 1.00000 -999.00000 -999.00000 -999.00000 
0.49240 0.91440 -0.03112 0.06259 331.09229 0.00000 270.45267 1.00000 -999.00000 -999.00000 -999.00000 
0.48983 0.91440 -0.03127 0.05824 332.04739 0.00000 270.45013 1.00000 -999.00000 -999.00000 -999.00000 
0.48983 0.91440 -0.03127 0.05824 332.04739 0.00000 270.45013 1.00000 -999.00000 -999.00000 -999.00000 
0.48726 0.91440 -0.03141 0.05407 332.97754 0.00000 270.44772 1.00000 -999.00000 -999.00000 -999.00000 
0.48726 0.91440 -0.03141 0.05407 332.97754 0.00000 270.44772 1.00000 -999.00000 -999.00000 -999.00000 
0.48469 0.91440 -0.03156 0.05008 333.88470 0.00000 270.44537 1.00000 -999.00000 -999.00000 -999.00000 
0.48469 0.91440 -0.03156 0.05008 333.88470 0.00000 270.44537 1.00000 -999.00000 -999.00000 -999.00000 
0.48212 0.91440 -0.03170 0.04624 334.77063 0.00000 270.44318 1.00000 -999.00000 -999.00000 -999.00000 
0.48212 0.91440 -0.03170 0.04624 334.77063 0.00000 270.44318 1.00000 -999.00000 -999.00000 -999.00000 
0.47955 0.91440 -0.03184 0.04256 335.63733 0.00000 270.44101 1.00000 -999.00000 -999.00000 -999.00000 
0.47955 0.91440 -0.03184 0.04256 335.63733 0.00000 270.44101 1.00000 -999.00000 -999.00000 -999.00000 
0.47698 0.91440 -0.03198 0.03900 336.48675 0.00000 270.43896 1.00000 -999.00000 -999.00000 -999.00000 
0.47698 0.91440 -0.03198 0.03900 336.48676 0.00000 270.43896 1.00000 -999.00000 -999.00000 -999.00000 
0.47441 0.91440 -0.03212 0.03557 337.32049 0.00000 270.43695 1.00000 -999.00000 -999.00000 -999.00000 
0.47441 0.91440 -0.03212 0.03557 337.32050 0.00000 270.43695 1.00000 -999.00000 -999.00000 -999.00000 
0.47184 0.91440 -0.03225 0.03226 338.13989 0.00000 270.43503 1.00000 -999.00000 -999.00000 -999.00000 
0.47184 0.91440 -0.03225 0.03226 338.13989 0.00000 270.43503 1.00000 -999.00000 -999.00000 -999.00000 
0.46927 0.91440 -0.03239 0.02906 338.94592 0.00000 270.43317 1.00000 -999.00000 -999.00000 -999.00000 
0.46927 0.91440 -0.03239 0.02906 338.94592 0.00000 270.43317 1.00000 -999.00000 -999.00000 -999.00000 
0.46670 0.91440 -0.03252 0.02596 339.73932 0.00000 270.43137 1.00000 -999.00000 -999.00000 -999.00000 
0.46670 0.91440 -0.03252 0.02596 339.73932 0.00000 270.43137 1.00000 -999.00000 -999.00000 -999.00000 
0.46413 0.91440 -0.03265 0.02296 340.52118 0.00000 270.42960 1.00000 -999.00000 -999.00000 -999.00000 
0.46413 0.91440 -0.03265 0.02296 340.52118 0.00000 270.42960 1.00000 -999.00000 -999.00000 -999.00000 
0.46156 0.91440 -0.03278 0.02005 341.29284 0.00000 270.42792 1.00000 -999.00000 -999.00000 -999.00000 
0.46156 0.91440 -0.03278 0.02005 341.29285 0.00000 270.42792 1.00000 -999.00000 -999.00000 -999.00000 
0.45899 0.91440 -0.03290 0.01722 342.05563 0.00000 270.42624 1.00000 -999.00000 -999.00000 -999.00000 
0.45899 0.91440 -0.03290 0.01722 342.05563 0.00000 270.42624 1.00000 -999.00000 -999.00000 -999.00000 
0.45642 0.91440 -0.03303 0.01446 342.80999 0.00000 270.42465 1.00000 -999.00000 -999.00000 -999.00000 
0.45642 0.91440 -0.03303 0.01446 342.81000 0.00000 270.42465 1.00000 -999.00000 -999.00000 -999.00000 
0.45384 0.91440 -0.03315 0.01179 343.55603 0.00000 270.42310 1.00000 -999.00000 -999.00000 -999.00000 
0.45384 0.91440 -0.03315 0.01179 343.55603 0.00000 270.42310 1.00000 -999.00000 -999.00000 -999.00000 
0.45127 0.91440 -0.03327 0.00918 344.29467 0.00000 270.42157 1.00000 -999.00000 -999.00000 -999.00000 
0.45127 0.91440 -0.03327 0.00918 344.29468 0.00000 270.42157 1.00000 -999.00000 -999.00000 -999.00000 
0.44870 0.91440 -0.03339 0.00664 345.02707 0.00000 270.42010 1.00000 -999.00000 -999.00000 -999.00000 
0.44870 0.91440 -0.03339 0.00664 345.02707 0.00000 270.42010 1.00000 -999.00000 -999.00000 -999.00000 
0.44613 0.91440 -0.03351 0.00416 345.75323 0.00000 270.41867 1.00000 -999.00000 -999.00000 -999.00000 
0.44613 0.91440 -0.03351 0.00416 345.75323 0.00000 270.41867 1.00000 -999.00000 -999.00000 -999.00000 
0.44356 0.91440 -0.03363 0.00175 346.47357 0.00000 270.41724 1.00000 -999.00000 -999.00000 -999.00000 
0.44356 0.91440 -0.03363 0.00175 346.47357 0.00000 270.41724 1.00000 -999.00000 -999.00000 -999.00000 
0.44099 0.91440 -0.03374 -0.00061 347.18899 0.00000 270.41586 1.00000 -999.00000 -999.00000 -999.00000 
0.44099 0.91440 -0.03374 -0.00061 347.18900 0.00000 270.41586 1.00000 -999.00000 -999.00000 -999.00000 
0.43841 0.91440 -0.03386 -0.00291 347.89996 0.00000 270.41455 1.00000 -999.00000 -999.00000 -999.00000 
0.43841 0.91440 -0.03386 -0.00291 347.89996 0.00000 270.41455 1.00000 -999.00000 -999.00000 -999.00000 
0.43584 0.91440 -0.03397 -0.00517 348.60693 0.00000 270.41324 1.00000 -999.00000 -999.00000 -999.00000 
0.43584 0.91440 -0.03397 -0.00517 348.60693 0.00000 270.41324 1.00000 -999.00000 -999.00000 -999.00000 
0.43327 0.91440 -0.03408 -0.00738 349.31009 0.00000 270.41193 1.00000 -999.00000 -999.00000 -999.00000 
0.43327 0.91440 -0.03408 -0.00738 349.31009 0.00000 270.41193 1.00000 -999.00000 -999.00000 -999.00000 
0.43070 0.91440 -0.03419 -0.00954 350.00982 0.00000 270.41064 1.00000 -999.00000 -999.00000 -999.00000 
0.43070 0.91440 -0.03419 -0.00954 350.00983 0.00000 270.41064 1.00000 -999.00000 -999.00000 -999.00000 
0.42813 0.91440 -0.03430 -0.01166 350.70669 0.00000 270.40942 1.00000 -999.00000 -999.00000 -999.00000 
0.42813 0.91440 -0.03430 -0.01166 350.70670 0.00000 270.40942 1.00000 -999.00000 -999.00000 -999.00000 
0.42555 0.91440 -0.03440 -0.01374 351.40100 0.00000 270.40820 1.00000 -999.00000 -999.00000 -999.00000 
0.42555 0.91440 -0.03440 -0.01374 351.40100 0.00000 270.40820 1.00000 -999.00000 -999.00000 -999.00000 
0.42298 0.91440 -0.03450 -0.01577 352.09305 0.00000 270.40704 1.00000 -999.00000 -999.00000 -999.00000 
0.42298 0.91440 -0.03450 -0.01577 352.09305 0.00000 270.40704 1.00000 -999.00000 -999.00000 -999.00000 
0.42041 0.91440 -0.03461 -0.01777 352.78317 0.00000 270.40585 1.00000 -999.00000 -999.00000 -999.00000 
0.42041 0.91440 -0.03461 -0.01777 352.78317 0.00000 270.40585 1.00000 -999.00000 -999.00000 -999.00000 
0.41784 0.91440 -0.03471 -0.01974 353.47174 0.00000 270.40472 1.00000 -999.00000 -999.00000 -999.00000 
0.41784 0.91440 -0.03471 -0.01974 353.47174 0.00000 270.40472 1.00000 -999.00000 -999.00000 -999.00000 
0.41527 0.91440 -0.03481 -0.02167 354.15893 0.00000 270.40359 1.00000 -999.00000 -999.00000 -999.00000 
0.41527 0.91440 -0.03481 -0.02167 354.15894 0.00000 270.40359 1.00000 -999.00000 -999.00000 -999.00000 
0.41269 0.91440 -0.03490 -0.02357 354.84506 0.00000 270.40250 1.00000 -999.00000 -999.00000 -999.00000 
0.41269 0.91440 -0.03490 -0.02357 354.84506 0.00000 270.40250 1.00000 -999.00000 -999.00000 -999.00000 
0.41012 0.91440 -0.03500 -0.02544 355.53024 0.00000 270.40140 1.00000 -999.00000 -999.00000 -999.00000 
0.41012 0.91440 -0.03500 -0.02544 355.53024 0.00000 270.40140 1.00000 -999.00000 -999.00000 -999.00000 
0.40755 0.91440 -0.03509 -0.02727 356.21502 0.00000 270.40033 1.00000 -999.00000 -999.00000 -999.00000 
0.40755 0.91440 -0.03509 -0.02727 356.21503 0.00000 270.40033 1.00000 -999.00000 -999.00000 -999.00000 
0.40498 0.91440 -0.03519 -0.02909 356.89984 0.00000 270.39926 1.00000 -999.00000 -999.00000 -999.00000 
0.40498 0.91440 -0.03519 -0.02909 356.89984 0.00000 270.39926 1.00000 -999.00000 -999.00000 -999.00000 
0.40240 0.91440 -0.03528 -0.03087 357.58438 0.00000 270.39822 1.00000 -999.00000 -999.00000 -999.00000 
0.40240 0.91440 -0.03528 -0.03087 357.58438 0.00000 270.39822 1.00000 -999.00000 -999.00000 -999.00000 
0.39983 0.91440 -0.03537 -0.03262 358.26855 0.00000 270.39722 1.00000 -999.00000 -999.00000 -999.00000 
0.39983 0.91440 -0.03537 -0.03262 358.26855 0.00000 270.39722 1.00000 -999.00000 -999.00000 -999.00000 
0.39726 0.91440 -0.03545 -0.03435 358.95288 0.00000 270.39618 1.00000 -999.00000 -999.00000 -999.00000 
0.39726 0.91440 -0.03545 -0.03435 358.95288 0.00000 270.39618 1.00000 -999.00000 -999.00000 -999.00000 
0.39468 0.91440 -0.03554 -0.03606 359.63806 0.00000 270.39520 1.00000 -999.00000 -999.00000 -999.00000 
0.39468 0.91440 -0.03554 -0.03606 359.63806 0.00000 270.39520 1.00000 -999.00000 -999.00000 -999.00000 
0.39211 0.91440 -0.03562 -0.03775 360.32455 0.00000 270.39420 1.00000 -999.00000 -999.00000 -999.00000 
0.39211 0.91440 -0.03562 -0.03775 360.32455 0.00000 270.39420 1.00000 -999.00000 -999.00000 -999.00000 
0.38954 0.91440 -0.03571 -0.03942 361.01178 0.00000 270.39325 1.00000 -999.00000 -999.00000 -999.00000 
0.38954 0.91440 -0.03571 -0.03942 361.01178 0.00000 270.39325 1.00000 -999.00000 -999.00000 -999.00000 
0.38697 0.91440 -0.03579 -0.04105 361.69961 0.00000 270.39230 1.00000 -999.00000 -999.00000 -999.00000 
0.38697 0.91440 -0.03579 -0.04105 361.69962 0.00000 270.39230 1.00000 -999.00000 -999.00000 -999.00000 
0.38439 0.91440 -0.03587 -0.04268 362.38879 0.00000 270.39136 1.00000 -999.00000 -999.00000 -999.00000 
0.38439 0.91440 -0.03587 -0.04268 362.38879 0.00000 270.39136 1.00000 -999.00000 -999.00000 -999.00000 
0.38182 0.91440 -0.03594 -0.04428 363.07946 0.00000 270.39038 1.00000 -999.00000 -999.00000 -999.00000 
0.38182 0.91440 -0.03594 -0.04428 363.07947 0.00000 270.39038 1.00000 -999.00000 -999.00000 -999.00000 
0.37925 0.91440 -0.03602 -0.04586 363.77197 0.00000 270.38947 1.00000 -999.00000 -999.00000 -999.00000 
0.37925 0.91440 -0.03602 -0.04586 363.77197 0.00000 270.38947 1.00000 -999.00000 -999.00000 -999.00000 
0.37667 0.91440 -0.03609 -0.04743 364.46618 0.00000 270.38855 1.00000 -999.00000 -999.00000 -999.00000 
0.37667 0.91440 -0.03609 -0.04743 364.46619 0.00000 270.38855 1.00000 -999.00000 -999.00000 -999.00000 
0.37410 0.91440 -0.03617 -0.04898 365.16208 0.00000 270.38763 1.00000 -999.00000 -999.00000 -999.00000 
0.37410 0.91440 -0.03617 -0.04898 365.16208 0.00000 270.38763 1.00000 -999.00000 -999.00000 -999.00000 
0.37153 0.91440 -0.03624 -0.05051 365.86029 0.00000 270.38678 1.00000 -999.00000 -999.00000 -999.00000 
0.37153 0.91440 -0.03624 -0.05051 365.86029 0.00000 270.38678 1.00000 -999.00000 -999.00000 -999.00000 
0.36895 0.91440 -0.03631 -0.05203 366.56091 0.00000 270.38586 1.00000 -999.00000 -999.00000 -999.00000 
0.36895 0.91440 -0.03631 -0.05203 366.56091 0.00000 270.38586 1.00000 -999.00000 -999.00000 -999.00000 
0.36638 0.91440 -0.03637 -0.05353 367.26349 0.00000 270.38498 1.00000 -999.00000 -999.00000 -999.00000 
0.36638 0.91440 -0.03637 -0.05353 367.26349 0.00000 270.38498 1.00000 -999.00000 -999.00000 -999.00000 
0.36381 0.91440 -0.03644 -0.05501 367.96878 0.00000 270.38412 1.00000 -999.00000 -999.00000 -999.00000 
0.36381 0.91440 -0.03644 -0.05501 367.96878 0.00000 270.38412 1.00000 -999.00000 -999.00000 -999.00000 
0.36123 0.91440 -0.03650 -0.05649 368.67700 0.00000 270.38327 1.00000 -999.00000 -999.00000 -999.00000 
0.36123 0.91440 -0.03650 -0.05649 368.67700 0.00000 270.38327 1.00000 -999.00000 -999.00000 -999.00000 
0.35866 0.91440 -0.03657 -0.05794 369.38736 0.00000 270.38242 1.00000 -999.00000 -999.00000 -999.00000 
0.35866 0.91440 -0.03657 -0.05794 369.38736 0.00000 270.38242 1.00000 -999.00000 -999.00000 -999.00000 
0.35609 0.91440 -0.03663 -0.05937 370.10061 0.00000 270.38159 1.00000 -999.00000 -999.00000 -999.00000 
0.35609 0.91440 -0.03663 -0.05937 370.10062 0.00000 270.38159 1.00000 -999.00000 -999.00000 -999.00000 
0.35351 0.91440 -0.03668 -0.06081 370.81814 0.00000 270.38074 1.00000 -999.00000 -999.00000 -999.00000 
0.35351 0.91440 -0.03668 -0.06081 370.81815 0.00000 270.38074 1.00000 -999.00000 -999.00000 -999.00000 
0.35094 0.91440 -0.03674 -0.06224 371.53949 0.00000 270.37991 1.00000 -999.00000 -999.00000 -999.00000 
0.35094 0.91440 -0.03674 -0.06224 371.53949 0.00000 270.37991 1.00000 -999.00000 -999.00000 -999.00000 
0.34837 0.91440 -0.03680 -0.06365 372.26342 0.00000 270.37909 1.00000 -999.00000 -999.00000 -999.00000 
0.34837 0.91440 -0.03680 -0.06365 372.26343 0.00000 270.37909 1.00000 -999.00000 -999.00000 -999.00000 
0.34579 0.91440 -0.03685 -0.06504 372.99005 0.00000 270.37827 1.00000 -999.00000 -999.00000 -999.00000 
0.34579 0.91440 -0.03685 -0.06504 372.99005 0.00000 270.37827 1.00000 -999.00000 -999.00000 -999.00000 
0.34322 0.91440 -0.03690 -0.06641 373.72015 0.00000 270.37747 1.00000 -999.00000 -999.00000 -999.00000 
0.34322 0.91440 -0.03690 -0.06641 373.72015 0.00000 270.37747 1.00000 -999.00000 -999.00000 -999.00000 
0.34064 0.91440 -0.03695 -0.06778 374.45413 0.00000 270.37668 1.00000 -999.00000 -999.00000 -999.00000 
0.34064 0.91440 -0.03695 -0.06778 374.45413 0.00000 270.37668 1.00000 -999.00000 -999.00000 -999.00000 
0.33807 0.91440 -0.03700 -0.06914 375.19204 0.00000 270.37589 1.00000 -999.00000 -999.00000 -999.00000 
0.33807 0.91440 -0.03700 -0.06914 375.19205 0.00000 270.37589 1.00000 -999.00000 -999.00000 -999.00000 
0.33550 0.91440 -0.03704 -0.07048 375.93390 0.00000 270.37509 1.00000 -999.00000 -999.00000 -999.00000 
0.33550 0.91440 -0.03704 -0.07048 375.93390 0.00000 270.37509 1.00000 -999.00000 -999.00000 -999.00000 
0.33292 0.91440 -0.03709 -0.07182 376.67975 0.00000 270.37430 1.00000 -999.00000 -999.00000 -999.00000 
0.33292 0.91440 -0.03709 -0.07182 376.67975 0.00000 270.37430 1.00000 -999.00000 -999.00000 -999.00000 
0.33035 0.91440 -0.03713 -0.07314 377.42971 0.00000 270.37354 1.00000 -999.00000 -999.00000 -999.00000 
0.33035 0.91440 -0.03713 -0.07314 377.42972 0.00000 270.37354 1.00000 -999.00000 -999.00000 -999.00000 
0.32777 0.91440 -0.03717 -0.07445 378.18402 0.00000 270.37274 1.00000 -999.00000 -999.00000 -999.00000 
0.32777 0.91440 -0.03717 -0.07445 378.18402 0.00000 270.37274 1.00000 -999.00000 -999.00000 -999.00000 
0.32520 0.91440 -0.03721 -0.07575 378.94275 0.00000 270.37201 1.00000 -999.00000 -999.00000 -999.00000 
0.32520 0.91440 -0.03721 -0.07575 378.94275 0.00000 270.37201 1.00000 -999.00000 -999.00000 -999.00000 
0.32263 0.91440 -0.03724 -0.07704 379.70596 0.00000 270.37125 1.00000 -999.00000 -999.00000 -999.00000 
0.32263 0.91440 -0.03724 -0.07704 379.70596 0.00000 270.37125 1.00000 -999.00000 -999.00000 -999.00000 
0.32005 0.91440 -0.03728 -0.07831 380.47387 0.00000 270.37051 1.00000 -999.00000 -999.00000 -999.00000 
0.32005 0.91440 -0.03728 -0.07831 380.47388 0.00000 270.37051 1.00000 -999.00000 -999.00000 -999.00000 
0.31748 0.91440 -0.03731 -0.07958 381.24652 0.00000 270.36975 1.00000 -999.00000 -999.00000 -999.00000 
0.31748 0.91440 -0.03731 -0.07958 381.24652 0.00000 270.36975 1.00000 -999.00000 -999.00000 -999.00000 
0.31490 0.91440 -0.03734 -0.08084 382.02404 0.00000 270.36902 1.00000 -999.00000 -999.00000 -999.00000 
0.31490 0.91440 -0.03734 -0.08084 382.02405 0.00000 270.36902 1.00000 -999.00000 -999.00000 -999.00000 
0.31233 0.91440 -0.03737 -0.08208 382.80658 0.00000 270.36829 1.00000 -999.00000 -999.00000 -999.00000 
0.31233 0.91440 -0.03737 -0.08208 382.80658 0.00000 270.36829 1.00000 -999.00000 -999.00000 -999.00000 
0.30976 0.91440 -0.03739 -0.08332 383.59433 0.00000 270.36758 1.00000 -999.00000 -999.00000 -999.00000 
0.30976 0.91440 -0.03739 -0.08332 383.59433 0.00000 270.36758 1.00000 -999.00000 -999.00000 -999.00000 
0.30718 0.91440 -0.03742 -0.08454 384.38733 0.00000 270.36688 1.00000 -999.00000 -999.00000 -999.00000 
0.30718 0.91440 -0.03742 -0.08454 384.38733 0.00000 270.36688 1.00000 -999.00000 -999.00000 -999.00000 
0.30461 0.91440 -0.03744 -0.08576 385.18567 0.00000 270.36615 1.00000 -999.00000 -999.00000 -999.00000 
0.30461 0.91440 -0.03744 -0.08576 385.18567 0.00000 270.36615 1.00000 -999.00000 -999.00000 -999.00000 
0.30203 0.91440 -0.03746 -0.08696 385.98944 0.00000 270.36545 1.00000 -999.00000 -999.00000 -999.00000 
0.30203 0.91440 -0.03746 -0.08696 385.98944 0.00000 270.36545 1.00000 -999.00000 -999.00000 -999.00000 
0.29946 0.91440 -0.03747 -0.08816 386.79886 0.00000 270.36475 1.00000 -999.00000 -999.00000 -999.00000 
0.29946 0.91440 -0.03747 -0.08816 386.79886 0.00000 270.36475 1.00000 -999.00000 -999.00000 -999.00000 
0.29689 0.91440 -0.03749 -0.08934 387.61392 0.00000 270.36407 1.00000 -999.00000 -999.00000 -999.00000 
0.29689 0.91440 -0.03749 -0.08934 387.61392 0.00000 270.36407 1.00000 -999.00000 -999.00000 -999.00000 
0.29431 0.91440 -0.03750 -0.09051 388.43478 0.00000 270.36337 1.00000 -999.00000 -999.00000 -999.00000 
0.29431 0.91440 -0.03750 -0.09051 388.43478 0.00000 270.36337 1.00000 -999.00000 -999.00000 -999.00000 
0.29174 0.91440 -0.03751 -0.09167 389.26159 0.00000 270.36270 1.00000 -999.00000 -999.00000 -999.00000 
0.29174 0.91440 -0.03751 -0.09167 389.26160 0.00000 270.36270 1.00000 -999.00000 -999.00000 -999.00000 
0.28916 0.91440 -0.03752 -0.09282 390.09460 0.00000 270.36203 1.00000 -999.00000 -999.00000 -999.00000 
0.28916 0.91440 -0.03752 -0.09282 390.09460 0.00000 270.36203 1.00000 -999.00000 -999.00000 -999.00000 
0.28659 0.91440 -0.03753 -0.09395 390.93377 0.00000 270.36136 1.00000 -999.00000 -999.00000 -999.00000 
0.28659 0.91440 -0.03753 -0.09395 390.93378 0.00000 270.36136 1.00000 -999.00000 -999.00000 -999.00000 
0.28401 0.91440 -0.03753 -0.09508 391.77926 0.00000 270.36069 1.00000 -999.00000 -999.00000 -999.00000 
0.28401 0.91440 -0.03753 -0.09508 391.77927 0.00000 270.36069 1.00000 -999.00000 -999.00000 -999.00000 
0.28144 0.91440 -0.03753 -0.09619 392.63122 0.00000 270.36005 1.00000 -999.00000 -999.00000 -999.00000 
0.28144 0.91440 -0.03753 -0.09619 392.63123 0.00000 270.36005 1.00000 -999.00000 -999.00000 -999.00000 
0.27887 0.91440 -0.03753 -0.09729 393.48986 0.00000 270.35938 1.00000 -999.00000 -999.00000 -999.00000 
0.27887 0.91440 -0.03753 -0.09729 393.48987 0.00000 270.35938 1.00000 -999.00000 -999.00000 -999.00000 
0.27629 0.91440 -0.03752 -0.09838 394.35534 0.00000 270.35873 1.00000 -999.00000 -999.00000 -999.00000 
0.27629 0.91440 -0.03752 -0.09838 394.35535 0.00000 270.35873 1.00000 -999.00000 -999.00000 -999.00000 
0.27372 0.91440 -0.03752 -0.09946 395.22766 0.00000 270.35812 1.00000 -999.00000 -999.00000 -999.00000 
0.27372 0.91440 -0.03752 -0.09946 395.22766 0.00000 270.35812 1.00000 -999.00000 -999.00000 -999.00000 
0.27114 0.91440 -0.03751 -0.10053 396.10693 0.00000 270.35751 1.00000 -999.00000 -999.00000 -999.00000 
0.27114 0.91440 -0.03751 -0.10053 396.10693 0.00000 270.35751 1.00000 -999.00000 -999.00000 -999.00000 
0.26857 0.91440 -0.03750 -0.10158 396.99316 0.00000 270.35690 1.00000 -999.00000 -999.00000 -999.00000 
0.26857 0.91440 -0.03750 -0.10158 396.99316 0.00000 270.35690 1.00000 -999.00000 -999.00000 -999.00000 
0.26599 0.91440 -0.03748 -0.10261 397.88650 0.00000 270.35629 1.00000 -999.00000 -999.00000 -999.00000 
0.26599 0.91440 -0.03748 -0.10261 397.88651 0.00000 270.35629 1.00000 -999.00000 -999.00000 -999.00000 
0.26342 0.91440 -0.03746 -0.10363 398.78714 0.00000 270.35571 1.00000 -999.00000 -999.00000 -999.00000 
0.26342 0.91440 -0.03746 -0.10363 398.78714 0.00000 270.35571 1.00000 -999.00000 -999.00000 -999.00000 
0.26085 0.91440 -0.03744 -0.10464 399.69519 0.00000 270.35510 1.00000 -999.00000 -999.00000 -999.00000 
0.26085 0.91440 -0.03744 -0.10464 399.69519 0.00000 270.35510 1.00000 -999.00000 -999.00000 -999.00000 
0.25827 0.91440 -0.03742 -0.10563 400.61090 0.00000 270.35452 1.00000 -999.00000 -999.00000 -999.00000 
0.25827 0.91440 -0.03742 -0.10563 400.61090 0.00000 270.35452 1.00000 -999.00000 -999.00000 -999.00000 
0.25570 0.91440 -0.03740 -0.10660 401.53430 0.00000 270.35394 1.00000 -999.00000 -999.00000 -999.00000 
0.25570 0.91440 -0.03740 -0.10660 401.53430 0.00000 270.35394 1.00000 -999.00000 -999.00000 -999.00000 
0.25312 0.91440 -0.03737 -0.10756 402.46551 0.00000 270.35339 1.00000 -999.00000 -999.00000 -999.00000 
0.25312 0.91440 -0.03737 -0.10756 402.46552 0.00000 270.35339 1.00000 -999.00000 -999.00000 -999.00000 
0.25055 0.91440 -0.03734 -0.10849 403.40466 0.00000 270.35284 1.00000 -999.00000 -999.00000 -999.00000 
0.25055 0.91440 -0.03734 -0.10849 403.40466 0.00000 270.35284 1.00000 -999.00000 -999.00000 -999.00000 
0.24798 0.91440 -0.03730 -0.10941 404.35202 0.00000 270.35229 1.00000 -999.00000 -999.00000 -999.00000 
0.24798 0.91440 -0.03730 -0.10941 404.35202 0.00000 270.35229 1.00000 -999.00000 -999.00000 -999.00000 
0.24540 0.91440 -0.03727 -0.11032 405.30774 0.00000 270.35175 1.00000 -999.00000 -999.00000 -999.00000 
0.24540 0.91440 -0.03727 -0.11032 405.30774 0.00000 270.35175 1.00000 -999.00000 -999.00000 -999.00000 
0.24283 0.91440 -0.03723 -0.11120 406.27191 0.00000 270.35126 1.00000 -999.00000 -999.00000 -999.00000 
0.24283 0.91440 -0.03723 -0.11120 406.27191 0.00000 270.35126 1.00000 -999.00000 -999.00000 -999.00000 
0.24025 0.91440 -0.03718 -0.11207 407.24462 0.00000 270.35074 1.00000 -999.00000 -999.00000 -999.00000 
0.24025 0.91440 -0.03718 -0.11207 407.24463 0.00000 270.35074 1.00000 -999.00000 -999.00000 -999.00000 
0.23768 0.91440 -0.03714 -0.11291 408.22595 0.00000 270.35025 1.00000 -999.00000 -999.00000 -999.00000 
0.23768 0.91440 -0.03714 -0.11291 408.22595 0.00000 270.35025 1.00000 -999.00000 -999.00000 -999.00000 
0.23511 0.91440 -0.03709 -0.11373 409.21591 0.00000 270.34979 1.00000 -999.00000 -999.00000 -999.00000 
0.23511 0.91440 -0.03709 -0.11373 409.21591 0.00000 270.34979 1.00000 -999.00000 -999.00000 -999.00000 
0.23253 0.91440 -0.03703 -0.11452 410.21453 0.00000 270.34933 1.00000 -999.00000 -999.00000 -999.00000 
0.23253 0.91440 -0.03703 -0.11452 410.21454 0.00000 270.34933 1.00000 -999.00000 -999.00000 -999.00000 
0.22996 0.91440 -0.03698 -0.11529 411.22238 0.00000 270.34888 1.00000 -999.00000 -999.00000 -999.00000 
0.22996 0.91440 -0.03698 -0.11529 411.22238 0.00000 270.34888 1.00000 -999.00000 -999.00000 -999.00000 
0.22738 0.91440 -0.03692 -0.11604 412.23974 0.00000 270.34842 1.00000 -999.00000 -999.00000 -999.00000 
0.22738 0.91440 -0.03692 -0.11604 412.23975 0.00000 270.34842 1.00000 -999.00000 -999.00000 -999.00000 
0.22481 0.91440 -0.03686 -0.11676 413.26657 0.00000 270.34799 1.00000 -999.00000 -999.00000 -999.00000 
0.22481 0.91440 -0.03686 -0.11676 413.26657 0.00000 270.34799 1.00000 -999.00000 -999.00000 -999.00000 
0.22224 0.91440 -0.03679 -0.11745 414.30291 0.00000 270.34760 1.00000 -999.00000 -999.00000 -999.00000 
0.22224 0.91440 -0.03679 -0.11745 414.30292 0.00000 270.34760 1.00000 -999.00000 -999.00000 -999.00000 
0.21966 0.91440 -0.03672 -0.11812 415.34887 0.00000 270.34720 1.00000 -999.00000 -999.00000 -999.00000 
0.21966 0.91440 -0.03672 -0.11812 415.34888 0.00000 270.34720 1.00000 -999.00000 -999.00000 -999.00000 
0.21709 0.91440 -0.03665 -0.11875 416.40478 0.00000 270.34683 1.00000 -999.00000 -999.00000 -999.00000 
0.21709 0.91440 -0.03665 -0.11875 416.40479 0.00000 270.34683 1.00000 -999.00000 -999.00000 -999.00000 
0.21452 0.91440 -0.03657 -0.11936 417.47097 0.00000 270.34650 1.00000 -999.00000 -999.00000 -999.00000 
0.21452 0.91440 -0.03657 -0.11936 417.47098 0.00000 270.34650 1.00000 -999.00000 -999.00000 -999.00000 
0.21195 0.91440 -0.03649 -0.11994 418.54785 0.00000 270.34613 1.00000 -999.00000 -999.00000 -999.00000 
0.21195 0.91440 -0.03649 -0.11994 418.54785 0.00000 270.34613 1.00000 -999.00000 -999.00000 -999.00000 
0.20937 0.91440 -0.03641 -0.12048 419.63543 0.00000 270.34583 1.00000 -999.00000 -999.00000 -999.00000 
0.20937 0.91440 -0.03641 -0.12048 419.63544 0.00000 270.34583 1.00000 -999.00000 -999.00000 -999.00000 
0.20680 0.91440 -0.03632 -0.12100 420.73376 0.00000 270.34552 1.00000 -999.00000 -999.00000 -999.00000 
0.20680 0.91440 -0.03632 -0.12100 420.73376 0.00000 270.34552 1.00000 -999.00000 -999.00000 -999.00000 
0.20423 0.91440 -0.03622 -0.12147 421.84295 0.00000 270.34521 1.00000 -999.00000 -999.00000 -999.00000 
0.20423 0.91440 -0.03622 -0.12147 421.84296 0.00000 270.34521 1.00000 -999.00000 -999.00000 -999.00000 
0.20165 0.91440 -0.03613 -0.12191 422.96340 0.00000 270.34497 1.00000 -999.00000 -999.00000 -999.00000 
0.20165 0.91440 -0.03613 -0.12191 422.96341 0.00000 270.34497 1.00000 -999.00000 -999.00000 -999.00000 
0.19908 0.91440 -0.03603 -0.12231 424.09539 0.00000 270.34473 1.00000 -999.00000 -999.00000 -999.00000 
0.19908 0.91440 -0.03603 -0.12231 424.09540 0.00000 270.34473 1.00000 -999.00000 -999.00000 -999.00000 
0.19651 0.91440 -0.03592 -0.12268 425.23934 0.00000 270.34454 1.00000 -999.00000 -999.00000 -999.00000 