#++++++++++++++++++++++++++++++++++++++++++++++++++++++++++++++++++++++++++++++++++++++++++++++++++++++++++++++++++++++++++++++++++
#
#   IPW-3 Cut/Slice DATA SUBMITTAL FORM for Test Case NACA0012_AE3932, May 18th 2026
#
#       NOMENCLATURE:
#                  X [m]:  X-coordinate of the surface (clean for reference)
#                  Y [m]:  Y-coordinate of the surface (clean for reference)
#                  Z [m]:  Z-coordinate of the surface (clean for reference)
#                 Cp [-]:  Pressure coefficient
#            HTC [W/m2K]:  Convective Heat Transfer Coefficient (on the rough surface)
#               Beta [-]:  Collection efficiency
#                 Ts [K]:  Surface temperature
#                 FF [-]:  Freezing fraction
#                  k [m]:  Surface roughness height if variable (OPTIONAL)
#         RhoIce [kg/m3]:  Ice density (OPTIONAL)
#     HTC_CLEAN [W/m2K]:  Convective Heat Transfer Coefficient on the surface without roughness (OPTIONAL)
#
#                XXmm:  Roughness height used for the case, in mm.
#                       In the zone name, use the format KS_XXmm.
#                       For example, if k_s = 1.5 mm, use KS_1p5mm.
#                       For Variable roughness, use KS_VAR
#
#    FLOW CONDITIONS:
#                                  AOA: 4.0 deg
#                           Mach Number: 0.3151 [-]
#       Mean aerodynamic chord (M.A.C.): 0.5334 [m]
#                       Reynolds Number: 3.9795 million (based on MAC)
#                       Freestream Temp: 267.55 [K]
#                        Reference area: 0.97548 [m2]
#               Moment Reference Center: 0.13335, 0, 0 [m] (X, Y, Z)
#
#    ICING CONDITIONS:
#                           Icing Time: 420 [s]
#                                  LWC: 0.55 [g/m3]
#                                  MVD: 20 [μm]
#
#              NOTES: 1. Please use at least 5 decimal places in the numerical values
#                     2. If data are NOT provided, please fill data fields with a numerical value of "-999"
#
#++++++++++++++++++++++++++++++++++++++++++++++++++++++++++++++++++++++++++++++++++++++++++++++++++++++++++++++++++++++++++++++++++

TITLE = "002_NACA0012_AE3932_01"
FILETYPE = FULL
VARIABLES = "X" "Y" "Z" "Cp" "HTC" "Beta" "Ts" "FF" "k" "RhoIce" "HTC_CLEAN"
ZONE T="SLICE_Y_0p9144_BINS01_KS_1mm_CUTDATA"
 I=1, J=1, K=1, DATAPACKING=POINT
-999.00000 -999.00000 -999.00000 -999.00000 -999.00000 -999.00000 -999.00000 -999.00000 -999.00000 -999.00000 -999.00000
ZONE T="SLICE_Y_0p9144_BINS03_KS_1mm_CUTDATA"
 I=519, J=1, K=1, DATAPACKING=POINT
0.53119 0.91440 -0.02696 0.24058 0.00000 0.00000 273.15000 -1.00000 0.00851 917.00000 0.00000
0.53183 0.91440 -0.02710 0.23948 0.00000 0.00000 273.15000 -1.00000 0.00568 917.00000 0.00000
0.53222 0.91440 -0.02718 0.25212 0.00000 0.00000 273.15000 -1.00000 0.05097 917.00000 0.00000
0.53247 0.91440 -0.02724 0.20979 0.00000 0.00000 273.15000 -1.00000 0.00013 917.00000 0.00000
0.53247 0.91440 -0.02733 0.22124 0.00000 0.00000 273.15000 -1.00000 0.01030 917.00000 0.00000
0.53246 0.91440 -0.02741 0.22912 0.00000 0.00000 273.15000 -1.00000 0.01037 917.00000 0.00000
0.53245 0.91440 -0.02750 0.22668 0.00000 0.00000 273.15000 -1.00000 0.00368 917.00000 0.00000
0.53245 0.91440 -0.02759 0.22861 0.00000 0.00000 273.15000 -1.00000 0.00794 917.00000 0.00000
0.53244 0.91440 -0.02768 0.23083 0.00000 0.00000 273.15000 -1.00000 0.00927 917.00000 0.00000
0.53243 0.91440 -0.02777 0.23361 0.00000 0.00000 273.15000 -1.00000 0.00807 917.00000 0.00000
0.53243 0.91440 -0.02786 0.23596 0.00000 0.00000 273.15000 -1.00000 0.00449 917.00000 0.00000
0.53242 0.91440 -0.02795 0.23715 0.00000 0.00000 273.15000 -1.00000 0.00195 917.00000 0.00000
0.53242 0.91440 -0.02804 0.23698 0.00000 0.00000 273.15000 -1.00000 0.00296 917.00000 0.00000
0.53241 0.91440 -0.02813 0.23522 0.00000 0.00000 273.15000 -1.00000 0.00629 917.00000 0.00000
0.53240 0.91440 -0.02822 0.23271 0.00000 0.00000 273.15000 -1.00000 0.01043 917.00000 0.00000
0.53240 0.91440 -0.02831 0.22918 0.00000 0.00000 273.15000 -1.00000 0.00706 917.00000 0.00000
0.53239 0.91440 -0.02840 0.23131 0.00000 0.00000 273.15000 -1.00000 0.03026 917.00000 0.00000
0.53238 0.91440 -0.02849 0.21803 0.00000 0.00000 273.15000 -1.00000 0.02988 917.00000 0.00000
0.53238 0.91440 -0.02858 0.20022 0.00000 0.00000 273.15000 -1.00000 0.00043 917.00000 0.00000
0.53212 0.91440 -0.02859 0.26398 0.00000 0.00000 273.15000 -1.00000 0.07790 917.00000 0.00000
0.53172 0.91440 -0.02862 0.24539 0.00000 0.00000 273.15000 -1.00000 0.01227 917.00000 0.00000
0.53107 0.91440 -0.02867 0.24650 0.00000 0.00000 273.15000 -1.00000 0.02095 917.00000 0.00000
0.53003 0.91440 -0.02874 0.23875 0.00000 0.00000 273.15000 -1.00000 0.01971 917.00000 0.00000
0.52837 0.91440 -0.02885 0.23139 0.00000 0.00000 273.15000 -1.00000 0.02221 917.00000 0.00000
0.52580 0.91440 -0.02903 0.22045 0.00000 0.00000 273.15000 -1.00000 0.02404 917.00000 0.00000
0.52324 0.91440 -0.02920 0.21065 0.00000 0.00000 273.15000 -1.00000 0.02619 917.00000 0.00000
0.52067 0.91440 -0.02937 0.20147 0.00000 0.00000 273.15000 -1.00000 0.02794 917.00000 0.00000
0.51810 0.91440 -0.02954 0.19317 0.00000 0.00000 273.15000 -1.00000 0.02957 917.00000 0.00000
0.51553 0.91440 -0.02971 0.18549 0.00000 0.00000 273.15000 -1.00000 0.03104 917.00000 0.00000
0.51296 0.91440 -0.02987 0.17834 0.00000 0.00000 273.15000 -1.00000 0.03241 917.00000 0.00000
0.51039 0.91440 -0.03003 0.17168 0.00000 0.00000 273.15000 -1.00000 0.03367 917.00000 0.00000
0.50782 0.91440 -0.03019 0.16545 0.00000 0.00000 273.15000 -1.00000 0.03485 917.00000 0.00000
0.50525 0.91440 -0.03035 0.15958 0.00000 0.00000 273.15000 -1.00000 0.03594 917.00000 0.00000
0.50268 0.91440 -0.03051 0.15402 0.00000 0.00000 273.15000 -1.00000 0.03697 917.00000 0.00000
0.50011 0.91440 -0.03067 0.14876 0.00000 0.00000 273.15000 -1.00000 0.03795 917.00000 0.00000
0.49754 0.91440 -0.03082 0.14378 0.00000 0.00000 273.15000 -1.00000 0.03886 917.00000 0.00000
0.49497 0.91440 -0.03097 0.13904 0.00000 0.00000 273.15000 -1.00000 0.03973 917.00000 0.00000
0.49240 0.91440 -0.03112 0.13453 0.00000 0.00000 273.15000 -1.00000 0.04055 917.00000 0.00000
0.48983 0.91440 -0.03127 0.13021 0.00000 0.00000 273.15000 -1.00000 0.04133 917.00000 0.00000
0.48726 0.91440 -0.03141 0.12606 0.00000 0.00000 273.15000 -1.00000 0.04208 917.00000 0.00000
0.48469 0.91440 -0.03156 0.12209 0.00000 0.00000 273.15000 -1.00000 0.04279 917.00000 0.00000
0.48212 0.91440 -0.03170 0.11829 0.00000 0.00000 273.15000 -1.00000 0.04347 917.00000 0.00000
0.47955 0.91440 -0.03184 0.11463 0.00000 0.00000 273.15000 -1.00000 0.04412 917.00000 0.00000
0.47698 0.91440 -0.03198 0.11110 0.00000 0.00000 273.15000 -1.00000 0.04474 917.00000 0.00000
0.47441 0.91440 -0.03212 0.10770 0.00000 0.00000 273.15000 -1.00000 0.04534 917.00000 0.00000
0.47184 0.91440 -0.03225 0.10441 0.00000 0.00000 273.15000 -1.00000 0.04592 917.00000 0.00000
0.46927 0.91440 -0.03239 0.10122 0.00000 0.00000 273.15000 -1.00000 0.04648 917.00000 0.00000
0.46670 0.91440 -0.03252 0.09815 0.00000 0.00000 273.15000 -1.00000 0.04702 917.00000 0.00000
0.46413 0.91440 -0.03265 0.09518 0.00000 0.00000 273.15000 -1.00000 0.04754 917.00000 0.00000
0.46156 0.91440 -0.03278 0.09230 0.00000 0.00000 273.15000 -1.00000 0.04804 917.00000 0.00000
0.45899 0.91440 -0.03290 0.08948 0.00000 0.00000 273.15000 -1.00000 0.04852 917.00000 0.00000
0.45641 0.91440 -0.03303 0.08674 0.00000 0.00000 273.15000 -1.00000 0.04900 917.00000 0.00000
0.45384 0.91440 -0.03315 0.08410 0.00000 0.00000 273.15000 -1.00000 0.04946 917.00000 0.00000
0.45127 0.91440 -0.03327 0.08154 0.00000 0.00000 273.15000 -1.00000 0.04990 917.00000 0.00000
0.44870 0.91440 -0.03339 0.07899 0.00000 0.00000 273.15000 -1.00000 0.05033 917.00000 0.00000
0.44613 0.91440 -0.03351 0.07654 0.00000 0.00000 273.15000 -1.00000 0.05076 917.00000 0.00000
0.44356 0.91440 -0.03363 0.07417 0.00000 0.00000 273.15000 -1.00000 0.05117 917.00000 0.00000
0.44099 0.91440 -0.03374 0.07182 0.00000 0.00000 273.15000 -1.00000 0.05157 917.00000 0.00000
0.43841 0.91440 -0.03386 0.06955 0.00000 0.00000 273.15000 -1.00000 0.05196 917.00000 0.00000
0.43584 0.91440 -0.03397 0.06731 0.00000 0.00000 273.15000 -1.00000 0.05235 917.00000 0.00000
0.43327 0.91440 -0.03408 0.06512 0.00000 0.00000 273.15000 -1.00000 0.05273 917.00000 0.00000
0.43070 0.91440 -0.03419 0.06300 0.00000 0.00000 273.15000 -1.00000 0.05310 917.00000 0.00000
0.42813 0.91440 -0.03430 0.06089 0.00000 0.00000 273.15000 -1.00000 0.05346 917.00000 0.00000
0.42555 0.91440 -0.03440 0.05885 0.00000 0.00000 273.15000 -1.00000 0.05382 917.00000 0.00000
0.42298 0.91440 -0.03450 0.05683 0.00000 0.00000 273.15000 -1.00000 0.05416 917.00000 0.00000
0.42041 0.91440 -0.03461 0.05485 0.00000 0.00000 273.15000 -1.00000 0.05451 917.00000 0.00000
0.41784 0.91440 -0.03471 0.05292 0.00000 0.00000 273.15000 -1.00000 0.05485 917.00000 0.00000
0.41527 0.91440 -0.03481 0.05100 0.00000 0.00000 273.15000 -1.00000 0.05518 917.00000 0.00000
0.41269 0.91440 -0.03490 0.04913 0.00000 0.00000 273.15000 -1.00000 0.05552 917.00000 0.00000
0.41012 0.91440 -0.03500 0.04729 0.00000 0.00000 273.15000 -1.00000 0.05584 917.00000 0.00000
0.40755 0.91440 -0.03509 0.04549 0.00000 0.00000 273.15000 -1.00000 0.05616 917.00000 0.00000
0.40498 0.91440 -0.03519 0.04368 0.00000 0.00000 273.15000 -1.00000 0.05648 917.00000 0.00000
0.40240 0.91440 -0.03528 0.04192 0.00000 0.00000 273.15000 -1.00000 0.05681 917.00000 0.00000
0.39983 0.91440 -0.03537 0.04021 0.00000 0.00000 273.15000 -1.00000 0.05711 917.00000 0.00000
0.39726 0.91440 -0.03545 0.03848 368.66325 0.00000 266.95899 -1.00000 0.05743 917.00000 368.66325
0.39469 0.91440 -0.03554 0.03683 369.13140 0.00000 266.95818 -1.00000 0.05773 917.00000 369.13140
0.39211 0.91440 -0.03562 0.03514 370.06854 0.00000 266.95722 -1.00000 0.05803 917.00000 370.06854
0.38954 0.91440 -0.03571 0.03350 370.98930 0.00000 266.95629 -1.00000 0.05835 917.00000 370.98930
0.38697 0.91440 -0.03579 0.03191 371.91412 0.00000 266.95537 -1.00000 0.05864 917.00000 371.91412
0.38439 0.91440 -0.03587 0.03029 372.85109 0.00000 266.95444 -1.00000 0.05894 917.00000 372.85109
0.38182 0.91440 -0.03594 0.02873 373.76858 0.00000 266.95356 -1.00000 0.05925 917.00000 373.76858
0.37925 0.91440 -0.03602 0.02717 374.70827 0.00000 266.95266 -1.00000 0.05954 917.00000 374.70827
0.37667 0.91440 -0.03609 0.02560 375.63732 0.00000 266.95178 -1.00000 0.05985 917.00000 375.63732
0.37410 0.91440 -0.03617 0.02411 376.56908 0.00000 266.95091 -1.00000 0.06015 917.00000 376.56908
0.37153 0.91440 -0.03624 0.02259 377.49936 0.00000 266.95005 -1.00000 0.06043 917.00000 377.49936
0.36895 0.91440 -0.03631 0.02108 378.44690 0.00000 266.94919 -1.00000 0.06074 917.00000 378.44690
0.36638 0.91440 -0.03637 0.01963 379.38668 0.00000 266.94835 -1.00000 0.06104 917.00000 379.38668
0.36381 0.91440 -0.03644 0.01817 380.32317 0.00000 266.94752 -1.00000 0.06132 917.00000 380.32317
0.36123 0.91440 -0.03650 0.01669 381.28548 0.00000 266.94668 -1.00000 0.06162 917.00000 381.28548
0.35866 0.91440 -0.03657 0.01528 382.22494 0.00000 266.94587 -1.00000 0.06193 917.00000 382.22494
0.35609 0.91440 -0.03663 0.01389 383.17683 0.00000 266.94507 -1.00000 0.06220 917.00000 383.17683
0.35351 0.91440 -0.03668 0.01245 384.14167 0.00000 266.94426 -1.00000 0.06249 917.00000 384.14167
0.35094 0.91440 -0.03674 0.01104 385.10969 0.00000 266.94345 -1.00000 0.06281 917.00000 385.10969
0.34837 0.91440 -0.03680 0.00967 386.07848 0.00000 266.94266 -1.00000 0.06311 917.00000 386.07848
0.34579 0.91440 -0.03685 0.00830 387.04329 0.00000 266.94189 -1.00000 0.06340 917.00000 387.04329
0.34322 0.91440 -0.03690 0.00694 388.02796 0.00000 266.94110 -1.00000 0.06370 917.00000 388.02796
0.34064 0.91440 -0.03695 0.00560 389.00402 0.00000 266.94034 -1.00000 0.06400 917.00000 389.00402
0.33807 0.91440 -0.03700 0.00427 389.99672 0.00000 266.93957 -1.00000 0.06430 917.00000 389.99672
0.33550 0.91440 -0.03704 0.00294 390.99375 0.00000 266.93881 -1.00000 0.06460 917.00000 390.99375
0.33292 0.91440 -0.03709 0.00163 391.98581 0.00000 266.93807 -1.00000 0.06491 917.00000 391.98581
0.33035 0.91440 -0.03713 0.00033 392.99476 0.00000 266.93733 -1.00000 0.06522 917.00000 392.99476
0.32778 0.91440 -0.03717 -0.00096 393.99795 0.00000 266.93659 -1.00000 0.06552 917.00000 393.99795
0.32520 0.91440 -0.03721 -0.00223 395.02577 0.00000 266.93586 -1.00000 0.06584 917.00000 395.02577
0.32263 0.91440 -0.03724 -0.00350 396.04112 0.00000 266.93514 -1.00000 0.06615 917.00000 396.04112
0.32005 0.91440 -0.03728 -0.00475 397.07684 0.00000 266.93442 -1.00000 0.06646 917.00000 397.07684
0.31748 0.91440 -0.03731 -0.00600 398.11859 0.00000 266.93370 -1.00000 0.06678 917.00000 398.11859
0.31490 0.91440 -0.03734 -0.00723 399.15587 0.00000 266.93300 -1.00000 0.06709 917.00000 399.15587
0.31233 0.91440 -0.03737 -0.00845 400.21612 0.00000 266.93230 -1.00000 0.06741 917.00000 400.21612
0.30976 0.91440 -0.03739 -0.00967 401.26497 0.00000 266.93161 -1.00000 0.06773 917.00000 401.26497
0.30718 0.91440 -0.03742 -0.01087 402.34394 0.00000 266.93092 -1.00000 0.06805 917.00000 402.34394
0.30461 0.91440 -0.03744 -0.01206 403.41183 0.00000 266.93024 -1.00000 0.06838 917.00000 403.41183
0.30203 0.91440 -0.03746 -0.01324 404.50116 0.00000 266.92956 -1.00000 0.06871 917.00000 404.50116
0.29946 0.91440 -0.03747 -0.01441 405.59929 0.00000 266.92889 -1.00000 0.06904 917.00000 405.59929
0.29689 0.91440 -0.03749 -0.01557 406.69303 0.00000 266.92823 -1.00000 0.06938 917.00000 406.69303
0.29431 0.91440 -0.03750 -0.01671 407.81443 0.00000 266.92757 -1.00000 0.06972 917.00000 407.81443
0.29174 0.91440 -0.03751 -0.01785 408.91925 0.00000 266.92693 -1.00000 0.07006 917.00000 408.91925
0.28916 0.91440 -0.03752 -0.01897 410.05995 0.00000 266.92628 -1.00000 0.07040 917.00000 410.05995
0.28659 0.91440 -0.03753 -0.02009 411.19075 0.00000 266.92564 -1.00000 0.07075 917.00000 411.19075
0.28401 0.91440 -0.03753 -0.02118 412.34335 0.00000 266.92501 -1.00000 0.07111 917.00000 412.34335
0.28144 0.91440 -0.03753 -0.02228 413.50834 0.00000 266.92439 -1.00000 0.07146 917.00000 413.50834
0.27887 0.91440 -0.03753 -0.02335 414.66825 0.00000 266.92378 -1.00000 0.07182 917.00000 414.66825
0.27629 0.91440 -0.03752 -0.02442 415.86183 0.00000 266.92316 -1.00000 0.07219 917.00000 415.86183
0.27372 0.91440 -0.03752 -0.02547 417.03890 0.00000 266.92256 -1.00000 0.07256 917.00000 417.03890
0.27114 0.91440 -0.03751 -0.02651 418.25205 0.00000 266.92196 -1.00000 0.07293 917.00000 418.25205
0.26857 0.91440 -0.03750 -0.02754 419.45639 0.00000 266.92138 -1.00000 0.07331 917.00000 419.45639
0.26599 0.91440 -0.03748 -0.02854 420.68582 0.00000 266.92080 -1.00000 0.07369 917.00000 420.68582
0.26342 0.91440 -0.03746 -0.02954 421.92960 0.00000 266.92023 -1.00000 0.07408 917.00000 421.92960
0.26085 0.91440 -0.03744 -0.03052 423.16661 0.00000 266.91967 -1.00000 0.07447 917.00000 423.16661
0.25827 0.91440 -0.03742 -0.03149 424.44212 0.00000 266.91911 -1.00000 0.07486 917.00000 424.44212
0.25570 0.91440 -0.03740 -0.03243 425.70479 0.00000 266.91857 -1.00000 0.07526 917.00000 425.70479
0.25312 0.91440 -0.03737 -0.03337 426.99922 0.00000 266.91803 -1.00000 0.07566 917.00000 426.99922
0.25055 0.91440 -0.03734 -0.03428 428.28860 0.00000 266.91752 -1.00000 0.07607 917.00000 428.28860
0.24798 0.91440 -0.03730 -0.03519 429.60816 0.00000 266.91700 -1.00000 0.07648 917.00000 429.60816
0.24540 0.91440 -0.03727 -0.03606 430.94272 0.00000 266.91649 -1.00000 0.07690 917.00000 430.94272
0.24283 0.91440 -0.03723 -0.03693 432.27700 0.00000 266.91600 -1.00000 0.07732 917.00000 432.27700
0.24025 0.91440 -0.03718 -0.03777 433.64416 0.00000 266.91551 -1.00000 0.07775 917.00000 433.64416
0.23768 0.91440 -0.03714 -0.03860 435.00598 0.00000 266.91504 -1.00000 0.07819 917.00000 435.00598
0.23511 0.91440 -0.03709 -0.03941 436.39883 0.00000 266.91458 -1.00000 0.07863 917.00000 436.39883
0.23253 0.91440 -0.03703 -0.04018 437.78958 0.00000 266.91414 -1.00000 0.07908 917.00000 437.78958
0.22996 0.91440 -0.03698 -0.04093 439.21226 0.00000 266.91370 -1.00000 0.07953 917.00000 439.21226
0.22738 0.91440 -0.03692 -0.04167 440.65102 0.00000 266.91328 -1.00000 0.08000 917.00000 440.65102
0.22481 0.91440 -0.03686 -0.04238 442.09070 0.00000 266.91288 -1.00000 0.08047 917.00000 442.09070
0.22224 0.91440 -0.03679 -0.04306 443.56794 0.00000 266.91248 -1.00000 0.08094 917.00000 443.56794
0.21967 0.91440 -0.03672 -0.04371 445.03987 0.00000 266.91211 -1.00000 0.08143 917.00000 445.03987
0.21709 0.91440 -0.03665 -0.04433 446.54520 0.00000 266.91175 -1.00000 0.08192 917.00000 446.54520
0.21452 0.91440 -0.03657 -0.04493 448.06814 0.00000 266.91141 -1.00000 0.08241 917.00000 448.06814
0.21194 0.91440 -0.03649 -0.04550 449.59764 0.00000 266.91108 -1.00000 0.08292 917.00000 449.59764
0.20937 0.91440 -0.03641 -0.04604 451.15896 0.00000 266.91078 -1.00000 0.08343 917.00000 451.15896
0.20680 0.91440 -0.03632 -0.04655 452.72312 0.00000 266.91049 -1.00000 0.08396 917.00000 452.72312
0.20423 0.91440 -0.03622 -0.04700 454.33002 0.00000 266.91022 -1.00000 0.08448 917.00000 454.33002
0.20166 0.91440 -0.03613 -0.04746 455.93297 0.00000 266.90997 -1.00000 0.08502 917.00000 455.93297
0.19908 0.91440 -0.03603 -0.04784 457.57347 0.00000 266.90974 -1.00000 0.08557 917.00000 457.57347
0.19651 0.91440 -0.03592 -0.04819 459.23365 0.00000 266.90954 -1.00000 0.08611 917.00000 459.23365
0.19394 0.91440 -0.03582 -0.04853 460.90188 0.00000 266.90936 -1.00000 0.08668 917.00000 460.90188
0.19137 0.91440 -0.03570 -0.04876 462.59685 0.00000 266.90921 -1.00000 0.08724 917.00000 462.59685
0.18880 0.91440 -0.03559 -0.04901 464.30653 0.00000 266.90908 -1.00000 0.08781 917.00000 464.30653
0.18622 0.91440 -0.03546 -0.04916 466.05983 0.00000 266.90899 -1.00000 0.08839 917.00000 466.05983
0.18365 0.91440 -0.03534 -0.04929 467.80879 0.00000 266.90891 -1.00000 0.08896 917.00000 467.80879
0.18108 0.91440 -0.03521 -0.04937 469.60593 0.00000 266.90887 -1.00000 0.08956 917.00000 469.60593
0.17851 0.91440 -0.03507 -0.04937 471.41846 0.00000 266.90887 -1.00000 0.09015 917.00000 471.41846
0.17594 0.91440 -0.03493 -0.04933 473.23760 0.00000 266.90889 -1.00000 0.09075 917.00000 473.23760
0.17337 0.91440 -0.03479 -0.04920 475.10410 0.00000 266.90896 -1.00000 0.09136 917.00000 475.10410
0.17080 0.91440 -0.03464 -0.04906 476.97315 0.00000 266.90905 -1.00000 0.09197 917.00000 476.97315
0.16823 0.91440 -0.03448 -0.04885 478.90865 0.00000 266.90917 -1.00000 0.09262 917.00000 478.90865
0.16566 0.91440 -0.03432 -0.04854 480.83056 0.00000 266.90934 -1.00000 0.09324 917.00000 480.83056
0.16309 0.91440 -0.03416 -0.04824 482.82647 0.00000 266.90952 -1.00000 0.09390 917.00000 482.82647
0.16052 0.91440 -0.03399 -0.04784 484.84452 0.00000 266.90975 -1.00000 0.09459 917.00000 484.84452
0.15796 0.91440 -0.03381 -0.04733 486.85991 0.00000 266.91003 -1.00000 0.09525 917.00000 486.85991
0.15539 0.91440 -0.03363 -0.04682 488.96461 0.00000 266.91034 -1.00000 0.09594 917.00000 488.96461
0.15282 0.91440 -0.03344 -0.04620 491.04431 0.00000 266.91069 -1.00000 0.09666 917.00000 491.04431
0.15025 0.91440 -0.03325 -0.04545 493.19430 0.00000 266.91112 -1.00000 0.09737 917.00000 493.19430
0.14769 0.91440 -0.03305 -0.04465 495.35392 0.00000 266.91157 -1.00000 0.09807 917.00000 495.35392
0.14512 0.91440 -0.03285 -0.04380 497.58962 0.00000 266.91207 -1.00000 0.09881 917.00000 497.58962
0.14255 0.91440 -0.03263 -0.04282 499.84845 0.00000 266.91263 -1.00000 0.09957 917.00000 499.84845
0.13999 0.91440 -0.03242 -0.04169 502.10596 0.00000 266.91248 -1.00000 0.10030 917.00000 502.10596
0.13743 0.91440 -0.03219 -0.04049 504.45648 0.00000 266.81671 0.00000 0.10103 917.00000 504.45648
0.13486 0.91440 -0.03196 -0.03921 506.81743 0.00275 266.18218 0.00000 0.10177 917.00000 506.81743
0.13230 0.91440 -0.03172 -0.03784 509.25979 0.00593 265.94697 1.00000 0.10253 917.00000 509.25979
0.12973 0.91440 -0.03148 -0.03632 511.70652 0.00670 265.96479 1.00000 0.10331 917.00000 511.70652
0.12717 0.91440 -0.03123 -0.03464 514.21710 0.00555 265.95099 1.00000 0.10408 917.00000 514.21710
0.12461 0.91440 -0.03097 -0.03283 516.78162 0.00642 265.97235 1.00000 0.10483 917.00000 516.78162
0.12205 0.91440 -0.03070 -0.03091 519.36973 0.00916 266.02326 1.00000 0.10561 917.00000 519.36973
0.11949 0.91440 -0.03043 -0.02885 522.06593 0.01002 266.04100 1.00000 0.10640 917.00000 522.06593
0.11693 0.91440 -0.03015 -0.02664 524.76743 0.00811 266.01577 1.00000 0.10720 917.00000 524.76743
0.11438 0.91440 -0.02985 -0.02426 527.56175 0.00895 266.03431 1.00000 0.10800 917.00000 527.56175
0.11182 0.91440 -0.02956 -0.02169 530.37546 0.01258 266.09896 1.00000 0.10879 917.00000 530.37546
0.10924 0.91440 -0.02925 -0.01895 533.31860 0.01355 266.12819 1.00000 0.10957 917.00000 533.31860
0.10678 0.91440 -0.02894 -0.01618 536.19983 0.01453 266.14997 1.00000 0.11030 917.00000 536.19983
0.10445 0.91440 -0.02865 -0.01337 538.97931 0.01540 266.16925 1.00000 0.11098 917.00000 538.97931
0.10222 0.91440 -0.02836 -0.01047 541.65218 0.01621 266.18729 1.00000 0.11159 917.00000 541.65218
0.10011 0.91440 -0.02808 -0.00758 544.26522 0.01708 266.20630 1.00000 0.11214 917.00000 544.26522
0.09809 0.91440 -0.02780 -0.00471 546.83646 0.01803 266.22538 1.00000 0.11270 917.00000 546.83646
0.09617 0.91440 -0.02754 -0.00177 549.28978 0.01861 266.23886 1.00000 0.11322 917.00000 549.28978
0.09434 0.91440 -0.02728 0.00114 551.70102 0.01914 266.25178 1.00000 0.11366 917.00000 551.70102
0.09260 0.91440 -0.02702 0.00398 554.06115 0.02016 266.27128 1.00000 0.11409 917.00000 554.06115
0.09095 0.91440 -0.02678 0.00687 556.31059 0.02102 266.28947 1.00000 0.11447 917.00000 556.31059
0.08937 0.91440 -0.02654 0.00977 558.48831 0.02177 266.30471 1.00000 0.11463 917.00000 558.48831
0.08787 0.91440 -0.02631 0.01207 560.77748 0.02231 266.31657 1.00000 0.11505 917.00000 560.77748
0.08644 0.91440 -0.02609 0.01499 562.78389 0.02277 266.32805 1.00000 0.11545 917.00000 562.78389
0.08501 0.91440 -0.02586 0.01830 564.76052 0.02362 266.34405 1.00000 0.11379 917.00000 564.76052
0.08359 0.91440 -0.02563 0.02111 566.88979 0.02439 266.36007 1.00000 0.11100 917.00000 566.88979
0.08216 0.91440 -0.02540 0.02421 569.03107 0.02526 266.37721 1.00000 0.10858 917.00000 569.03107
0.08073 0.91440 -0.02516 0.02738 571.26610 0.02607 266.39308 1.00000 0.10608 917.00000 571.26610
0.07931 0.91440 -0.02492 0.03068 573.48593 0.02652 266.40464 1.00000 0.10367 917.00000 573.48593
0.07788 0.91440 -0.02467 0.03412 575.78964 0.02725 266.41941 1.00000 0.10129 917.00000 575.78964
0.07646 0.91440 -0.02442 0.03769 578.06324 0.02812 266.43739 1.00000 0.09893 917.00000 578.06324
0.07503 0.91440 -0.02417 0.04140 580.44179 0.02938 266.45814 1.00000 0.09661 917.00000 580.44179
0.07361 0.91440 -0.02391 0.04526 582.81347 0.03004 266.47233 1.00000 0.09433 917.00000 582.81347
0.07219 0.91440 -0.02365 0.04925 585.27823 0.03040 266.48339 1.00000 0.09208 917.00000 585.27823
0.07077 0.91440 -0.02339 0.05339 587.74959 0.03137 266.49971 1.00000 0.08987 917.00000 587.74959
0.06935 0.91440 -0.02312 0.05768 590.26151 0.03233 266.51760 1.00000 0.08770 917.00000 590.26151
0.06793 0.91440 -0.02284 0.06213 592.88808 0.03308 266.53412 1.00000 0.08557 917.00000 592.88808
0.06651 0.91440 -0.02256 0.06675 595.50409 0.03415 266.55396 1.00000 0.08344 917.00000 595.50409
0.06509 0.91440 -0.02228 0.07155 598.23783 0.03545 266.57658 1.00000 0.08130 917.00000 598.23783
0.06367 0.91440 -0.02199 0.07655 600.94208 0.03635 266.59564 1.00000 0.07919 917.00000 600.94208
0.06226 0.91440 -0.02169 0.08178 603.77283 0.03754 266.61667 1.00000 0.07711 917.00000 603.77283
0.06084 0.91440 -0.02139 0.08722 606.60096 0.03855 266.63668 1.00000 0.07505 917.00000 606.60096
0.05943 0.91440 -0.02109 0.09284 609.56779 0.03973 266.65929 1.00000 0.07303 917.00000 609.56779
0.05802 0.91440 -0.02078 0.09867 612.55849 0.04106 266.68161 1.00000 0.07108 917.00000 612.55849
0.05660 0.91440 -0.02046 0.10475 615.60628 0.04174 266.69748 1.00000 0.06917 917.00000 615.60628
0.05519 0.91440 -0.02014 0.11109 618.79243 0.04287 266.71624 1.00000 0.06731 917.00000 618.79243
0.05379 0.91440 -0.01981 0.11772 621.96594 0.04395 266.73536 1.00000 0.06548 917.00000 621.96594
0.05238 0.91440 -0.01948 0.12465 625.30117 0.04480 266.75746 1.00000 0.06369 917.00000 625.30117
0.05097 0.91440 -0.01914 0.13188 628.59008 0.04714 266.79168 1.00000 0.06193 917.00000 628.59008
0.04957 0.91440 -0.01879 0.13943 632.09949 0.04887 266.82029 1.00000 0.06019 917.00000 632.09949
0.04817 0.91440 -0.01844 0.14726 635.61719 0.04926 266.83735 1.00000 0.05850 917.00000 635.61719
0.04677 0.91440 -0.01808 0.15542 639.33048 0.05102 266.89011 1.00000 0.05687 917.00000 639.33048
0.04537 0.91440 -0.01771 0.16400 643.06422 0.05965 267.01666 1.00000 0.05529 917.00000 643.06422
0.04397 0.91440 -0.01734 0.17303 646.84936 0.06933 267.16395 1.00000 0.05373 917.00000 646.84936
0.04258 0.91440 -0.01695 0.18251 650.82334 0.07544 267.27100 1.00000 0.05218 917.00000 650.82334
0.04118 0.91440 -0.01656 0.19244 654.81270 0.08097 267.36452 1.00000 0.05067 917.00000 654.81270
0.03979 0.91440 -0.01616 0.20283 659.06650 0.08639 267.46377 1.00000 0.04920 917.00000 659.06650
0.03841 0.91440 -0.01576 0.21368 663.31432 0.09221 267.55456 1.00000 0.04779 917.00000 663.31432
0.03702 0.91440 -0.01534 0.22512 667.87347 0.09731 267.64570 1.00000 0.04646 917.00000 667.87347
0.03564 0.91440 -0.01492 0.23726 672.33562 0.10463 267.74622 1.00000 0.04517 917.00000 672.33562
0.03426 0.91440 -0.01448 0.25010 677.02414 0.11071 267.84616 1.00000 0.04391 917.00000 677.02414
0.03288 0.91440 -0.01404 0.26365 681.80676 0.11773 267.95013 1.00000 0.04267 917.00000 681.80676
0.03151 0.91440 -0.01358 0.27790 686.70904 0.12544 268.05818 1.00000 0.04148 917.00000 686.70904
0.03014 0.91440 -0.01312 0.29294 691.97058 0.13174 268.15974 1.00000 0.04035 917.00000 691.97058
0.02878 0.91440 -0.01264 0.30894 697.16672 0.14061 268.27822 1.00000 0.03927 917.00000 697.16672
0.02742 0.91440 -0.01215 0.32603 702.63955 0.14910 268.40263 1.00000 0.03820 917.00000 702.63955
0.02606 0.91440 -0.01164 0.34429 707.96211 0.15849 268.53110 1.00000 0.03713 917.00000 707.96211
0.02471 0.91440 -0.01113 0.36368 713.72919 0.16926 268.67607 1.00000 0.03608 917.00000 713.72919
0.02337 0.91440 -0.01060 0.38427 719.49497 0.17959 268.81145 1.00000 0.03507 917.00000 719.49497
0.02203 0.91440 -0.01005 0.40631 725.48827 0.18949 268.94286 1.00000 0.03410 917.00000 725.48827
0.02070 0.91440 -0.00949 0.43012 731.44559 0.19937 269.07278 1.00000 0.03312 917.00000 731.44559
0.01937 0.91440 -0.00890 0.45585 737.12283 0.21105 269.22462 1.00000 0.03209 917.00000 737.12283
0.01806 0.91440 -0.00830 0.48345 743.00192 0.22426 269.38830 1.00000 0.03101 917.00000 743.00192
0.01675 0.91440 -0.00768 0.51310 748.47498 0.23952 269.56917 1.00000 0.02990 917.00000 748.47498
0.01545 0.91440 -0.00704 0.54531 753.91127 0.25249 269.73845 1.00000 0.02861 917.00000 753.91127
0.01417 0.91440 -0.00637 0.58039 758.14237 0.26599 269.91129 1.00000 0.02668 917.00000 758.14237
0.01290 0.91440 -0.00568 0.61818 762.00199 0.28231 270.16878 1.00000 0.02398 917.00000 762.00199
0.01165 0.91440 -0.00496 0.65907 764.51304 0.30075 271.22180 1.00000 0.02167 917.00000 764.51304
0.01041 0.91440 -0.00421 0.70400 763.14981 0.32416 272.89864 0.61127 0.02087 917.00000 763.14981
0.00920 0.91440 -0.00342 0.75341 755.83258 0.35036 273.13483 0.56968 0.02105 917.00000 755.83258
0.00802 0.91440 -0.00259 0.80684 733.79495 0.38203 273.15000 0.34680 0.02122 917.00000 733.79495
0.00686 0.91440 -0.00172 0.86355 680.30958 0.41418 273.15000 0.37970 0.02090 917.00000 680.30958
0.00579 0.91440 -0.00084 0.92125 535.50703 0.44551 273.15000 0.26040 0.01969 917.00000 535.50703
0.00483 0.91440 0.00003 0.97655 480.42677 0.47961 273.15000 0.27517 0.01723 917.00000 480.42677
0.00398 0.91440 0.00089 1.02636 552.51508 0.51914 273.15000 0.39941 0.01348 917.00000 552.51508
0.00324 0.91440 0.00172 1.06749 487.96071 0.55816 273.15000 0.40684 0.00873 917.00000 487.96071
0.00260 0.91440 0.00252 1.09680 495.19029 0.59769 273.15000 0.61842 0.00393 917.00000 495.19029
0.00205 0.91440 0.00332 1.11136 504.05920 0.62767 273.15000 0.58593 0.00092 917.00000 504.05920
0.00158 0.91440 0.00410 1.10690 503.14280 0.63990 273.15000 0.58593 0.00334 917.00000 503.14280
0.00119 0.91440 0.00487 1.07804 500.99731 0.66595 273.15000 0.37628 0.01701 917.00000 500.99731
0.00087 0.91440 0.00562 1.02155 523.05057 0.69168 273.15000 0.31068 0.04776 917.00000 523.05057
0.00064 0.91440 0.00636 0.93673 681.32974 0.69799 273.15000 0.31068 0.10123 917.00000 681.32974
0.00046 0.91440 0.00710 0.82105 947.79517 0.70043 273.15000 0.39140 0.18243 917.00000 947.79517
0.00035 0.91440 0.00784 0.67326 1184.31304 0.69912 273.15000 0.48574 0.29098 917.00000 1184.31304
0.00031 0.91440 0.00858 0.49693 1316.30173 0.69146 273.14622 0.69545 0.42029 917.00000 1316.30173
0.00032 0.91440 0.00930 0.40225 1430.51519 0.68582 273.07916 0.69545 0.48903 917.00000 1430.51519
0.00041 0.91440 0.01002 0.08688 1532.18695 0.63401 272.39373 0.96503 0.61591 917.00000 1532.18695
0.00055 0.91440 0.01074 -0.13167 1556.61013 0.60002 270.73660 1.00000 0.65544 917.00000 1556.61013
0.00076 0.91440 0.01145 -0.35346 1561.07067 0.55347 269.62393 1.00000 0.65875 917.00000 1561.07067
0.00104 0.91440 0.01216 -0.56760 1558.26927 0.50696 269.06948 1.00000 0.61978 917.00000 1558.26927
0.00137 0.91440 0.01285 -0.76200 1540.90883 0.45974 268.68140 1.00000 0.55384 917.00000 1540.90883
0.00179 0.91440 0.01356 -0.93003 1508.40876 0.41716 268.33936 1.00000 0.51104 917.00000 1508.40876
0.00228 0.91440 0.01426 -1.07146 1465.57703 0.36654 267.99515 1.00000 0.50564 917.00000 1465.57703
0.00284 0.91440 0.01497 -1.18818 1418.26748 0.31489 267.64744 1.00000 0.49226 917.00000 1418.26748
0.00350 0.91440 0.01567 -1.27930 1368.94718 0.26844 267.30336 1.00000 0.44935 917.00000 1368.94718
0.00423 0.91440 0.01638 -1.34350 1317.90998 0.21803 266.93780 1.00000 0.39334 917.00000 1317.90998
0.00507 0.91440 0.01709 -1.38448 1266.86950 0.16585 266.54966 1.00000 0.34127 917.00000 1266.86950