#+++++++++++++++++++++++++++++++++++++++++++++++++++++++++++++++++++++++++++++++++++++++++++++++++++++++++++++++++++++++++++++++++
#
#   IPW-3 Cut/Slice DATA SUBMITTAL FORM for Test Case NACA0012_AE3933, May 18th 2026
#
#       NOMENCLATURE:
#                  X [m]:  X-coordinate of the surface (clean for reference)
#                  Y [m]:  Y-coordinate of the surface (clean for reference)
#                  Z [m]:  Z-coordinate of the surface (clean for reference)
#                 Cp [-]:  Pressure coefficient
#            HTC [W/m2K]:  Convective Heat Transfer Coefficient (on the rough surface)
#               Beta [-]:  Collection efficiency
#                 Ts [K]:  Surface temperature
#                 FF [-]:  Freezing fraction
#                  k [m]:  Surface roughness height if variable (OPTIONAL)
#         RhoIce [kg/m3]:  Ice density (OPTIONAL)
#      HTC_CLEAN [W/m2K]:  Convective Heat Transfer Coefficient on the surface without roughness (OPTIONAL)
#
#                XXmm:  Roughness height used for the case, in mm.
#                       In the zone name, use the format KS_XXmm.
#                       For example, if k_s = 1.5 mm, use KS_1p5mm. 
#                       For Variable roughness, use KS_VAR
#
#    FLOW CONDITIONS:
#                                   AOA: 4.0 deg
#                           Mach Number: 0.3127 [-]
#       Mean aerodynamic chord (M.A.C.): 0.5334 [m]
#                       Reynolds Number: 3.8947 million (based on MAC)
#                       Freestream Temp: 270.95 [K]
#                        Reference area: 0.97548 [m2]
#               Moment Reference Center: 0.13335, 0, 0 [m] (X, Y, Z)
#
#    ICING CONDITIONS:
#                           Icing Time: 420 [s]
#                                  LWC: 0.55 [g/m3]
#                                  MVD: 20 [μm]
#
#              NOTES: 1. Please use at least 5 decimal places in the numerical values
#                     2. If data are NOT provided, please fill data fields with a numerical value of "-999" 
#
#++++++++++++++++++++++++++++++++++++++++++++++++++++++++++++++++++++++++++++++++++++++++++++++++++++++++++++++++++++

                                                    <- Optional ->                 
VARIABLES = "X" "Y" "Z" "Cp" "HTC" "Beta" "Ts" "FF" "k" "RhoIce" "HTC_CLEAN"

ZONE T="SLICE_Y_0p9144_BINS01_KS_1mm_CUTDATA"
5.324723721E-01 9.143999815E-01 -2.723562904E-02 5.633493885E-02 2.273605042E+02 0.000000000E+00 2.704481201E+02 -1.000000000E+00 -9.990000000E+02 0.000000000E+00 -9.990000000E+02
5.322237611E-01 9.143999815E-01 -2.718285844E-02 7.949309796E-02 2.495390320E+02 0.000000000E+00 2.704615479E+02 -1.000000000E+00 -9.990000000E+02 0.000000000E+00 -9.990000000E+02
5.322237611E-01 9.143999815E-01 -2.718285844E-02 7.949309796E-02 2.495391998E+02 0.000000000E+00 2.704615479E+02 -1.000000000E+00 -9.990000000E+02 0.000000000E+00 -9.990000000E+02
5.318259001E-01 9.143999815E-01 -2.709846944E-02 9.373362362E-02 2.557306976E+02 0.000000000E+00 2.704698181E+02 -1.000000000E+00 -9.990000000E+02 0.000000000E+00 -9.990000000E+02
5.318259001E-01 9.143999815E-01 -2.709846944E-02 9.373362362E-02 2.557307434E+02 0.000000000E+00 2.704698181E+02 -1.000000000E+00 -9.990000000E+02 0.000000000E+00 -9.990000000E+02
5.311893225E-01 9.143999815E-01 -2.696358971E-02 9.267877042E-02 2.552870178E+02 0.000000000E+00 2.704692078E+02 -1.000000000E+00 -9.990000000E+02 0.000000000E+00 -9.990000000E+02
5.311893225E-01 9.143999815E-01 -2.696358785E-02 9.267877042E-02 2.552870178E+02 0.000000000E+00 2.704692078E+02 -1.000000000E+00 -9.990000000E+02 0.000000000E+00 -9.990000000E+02
5.301707983E-01 9.143999815E-01 -2.674788423E-02 9.094187617E-02 2.551831207E+02 0.000000000E+00 2.704682007E+02 -1.000000000E+00 -9.990000000E+02 0.000000000E+00 -9.990000000E+02
5.301707983E-01 9.143999815E-01 -2.674788237E-02 9.094187617E-02 2.551831207E+02 0.000000000E+00 2.704682007E+02 -1.000000000E+00 -9.990000000E+02 0.000000000E+00 -9.990000000E+02
5.285409093E-01 9.143999815E-01 -2.640357241E-02 8.811272681E-02 2.554958801E+02 0.000000000E+00 2.704665527E+02 -1.000000000E+00 -9.990000000E+02 0.000000000E+00 -9.990000000E+02
5.285409093E-01 9.143999815E-01 -2.640357055E-02 8.811272681E-02 2.554958801E+02 0.000000000E+00 2.704665527E+02 -1.000000000E+00 -9.990000000E+02 0.000000000E+00 -9.990000000E+02
5.260180831E-01 9.143999815E-01 -2.587223984E-02 8.435589820E-02 2.566346436E+02 0.000000000E+00 2.704643555E+02 -1.000000000E+00 -9.990000000E+02 0.000000000E+00 -9.990000000E+02
5.260180831E-01 9.143999815E-01 -2.587223612E-02 8.435589820E-02 2.566346436E+02 0.000000000E+00 2.704643555E+02 -1.000000000E+00 -9.990000000E+02 0.000000000E+00 -9.990000000E+02
5.234947801E-01 9.143999815E-01 -2.534301579E-02 8.009283990E-02 2.584332581E+02 0.000000000E+00 2.704619141E+02 -1.000000000E+00 -9.990000000E+02 0.000000000E+00 -9.990000000E+02
5.234947801E-01 9.143999815E-01 -2.534301206E-02 8.009283990E-02 2.584332581E+02 0.000000000E+00 2.704619141E+02 -1.000000000E+00 -9.990000000E+02 0.000000000E+00 -9.990000000E+02
5.209710598E-01 9.143999815E-01 -2.481572516E-02 7.571008801E-02 2.605267639E+02 0.000000000E+00 2.704593506E+02 -1.000000000E+00 -9.990000000E+02 0.000000000E+00 -9.990000000E+02
5.209710598E-01 9.143999815E-01 -2.481572144E-02 7.571008801E-02 2.605267639E+02 0.000000000E+00 2.704593506E+02 -1.000000000E+00 -9.990000000E+02 0.000000000E+00 -9.990000000E+02
5.184469223E-01 9.143999815E-01 -2.429043129E-02 7.129491121E-02 2.626839905E+02 0.000000000E+00 2.704567871E+02 -1.000000000E+00 -9.990000000E+02 0.000000000E+00 -9.990000000E+02
5.184469223E-01 9.143999815E-01 -2.429042757E-02 7.129491121E-02 2.626840210E+02 0.000000000E+00 2.704567871E+02 -1.000000000E+00 -9.990000000E+02 0.000000000E+00 -9.990000000E+02
5.159224272E-01 9.143999815E-01 -2.376710065E-02 6.682612002E-02 2.648404236E+02 0.000000000E+00 2.704541931E+02 -1.000000000E+00 -9.990000000E+02 0.000000000E+00 -9.990000000E+02
5.159224272E-01 9.143999815E-01 -2.376709692E-02 6.682612002E-02 2.648404541E+02 0.000000000E+00 2.704541931E+02 -1.000000000E+00 -9.990000000E+02 0.000000000E+00 -9.990000000E+02
5.133975148E-01 9.143999815E-01 -2.324569784E-02 6.232491136E-02 2.669985962E+02 0.000000000E+00 2.704515991E+02 -1.000000000E+00 -9.990000000E+02 0.000000000E+00 -9.990000000E+02
5.133975148E-01 9.143999815E-01 -2.324569412E-02 6.232491136E-02 2.669986267E+02 0.000000000E+00 2.704515991E+02 -1.000000000E+00 -9.990000000E+02 0.000000000E+00 -9.990000000E+02
5.108721852E-01 9.143999815E-01 -2.272613905E-02 5.780250579E-02 2.691731262E+02 0.000000000E+00 2.704489746E+02 -1.000000000E+00 -9.990000000E+02 0.000000000E+00 -9.990000000E+02
5.108721852E-01 9.143999815E-01 -2.272613533E-02 5.780250579E-02 2.691731567E+02 0.000000000E+00 2.704489746E+02 -1.000000000E+00 -9.990000000E+02 0.000000000E+00 -9.990000000E+02
5.083464384E-01 9.143999815E-01 -2.220859565E-02 5.322398990E-02 2.713784790E+02 0.000000000E+00 2.704462891E+02 -1.000000000E+00 -9.990000000E+02 0.000000000E+00 -9.990000000E+02
5.083464384E-01 9.143999815E-01 -2.220859192E-02 5.322398990E-02 2.713785095E+02 0.000000000E+00 2.704462891E+02 -1.000000000E+00 -9.990000000E+02 0.000000000E+00 -9.990000000E+02
5.058203936E-01 9.143999815E-01 -2.169285528E-02 4.858562723E-02 2.736266479E+02 0.000000000E+00 2.704436035E+02 -1.000000000E+00 -9.990000000E+02 0.000000000E+00 -9.990000000E+02
5.058203936E-01 9.143999815E-01 -2.169285156E-02 4.858562723E-02 2.736266785E+02 0.000000000E+00 2.704436035E+02 -1.000000000E+00 -9.990000000E+02 0.000000000E+00 -9.990000000E+02
5.032938719E-01 9.143999815E-01 -2.117901295E-02 4.398092628E-02 2.759189148E+02 0.000000000E+00 2.704409180E+02 -1.000000000E+00 -9.990000000E+02 0.000000000E+00 -9.990000000E+02
5.032938719E-01 9.143999815E-01 -2.117900923E-02 4.398092628E-02 2.759189453E+02 0.000000000E+00 2.704409180E+02 -1.000000000E+00 -9.990000000E+02 0.000000000E+00 -9.990000000E+02
5.007670522E-01 9.143999815E-01 -2.066695131E-02 3.942111507E-02 2.782457275E+02 0.000000000E+00 2.704382935E+02 -1.000000000E+00 -9.990000000E+02 0.000000000E+00 -9.990000000E+02
5.007670522E-01 9.143999815E-01 -2.066694759E-02 3.942111507E-02 2.782457581E+02 0.000000000E+00 2.704382935E+02 -1.000000000E+00 -9.990000000E+02 0.000000000E+00 -9.990000000E+02
4.982398450E-01 9.143999815E-01 -2.015683055E-02 3.483013064E-02 2.805859070E+02 0.000000000E+00 2.704356079E+02 -1.000000000E+00 -9.990000000E+02 0.000000000E+00 -9.990000000E+02
4.982398152E-01 9.143999815E-01 -2.015682682E-02 3.483013064E-02 2.805859375E+02 0.000000000E+00 2.704356079E+02 -1.000000000E+00 -9.990000000E+02 0.000000000E+00 -9.990000000E+02
4.957122803E-01 9.143999815E-01 -1.964846440E-02 3.021670319E-02 2.829199524E+02 0.000000000E+00 2.704329224E+02 -1.000000000E+00 -9.990000000E+02 0.000000000E+00 -9.990000000E+02
4.957122505E-01 9.143999815E-01 -1.964846067E-02 3.021670319E-02 2.829199829E+02 0.000000000E+00 2.704329224E+02 -1.000000000E+00 -9.990000000E+02 0.000000000E+00 -9.990000000E+02
4.931842983E-01 9.143999815E-01 -1.914197952E-02 2.562572062E-02 2.852246094E+02 0.000000000E+00 2.704302368E+02 -1.000000000E+00 -9.990000000E+02 0.000000000E+00 -9.990000000E+02
4.931842685E-01 9.143999815E-01 -1.914197579E-02 2.562572062E-02 2.852246399E+02 0.000000000E+00 2.704302368E+02 -1.000000000E+00 -9.990000000E+02 0.000000000E+00 -9.990000000E+02
4.906559885E-01 9.143999815E-01 -1.863726415E-02 2.106341347E-02 2.874764404E+02 0.000000000E+00 2.704276123E+02 -1.000000000E+00 -9.990000000E+02 0.000000000E+00 -9.990000000E+02
4.906559587E-01 9.143999815E-01 -1.863726042E-02 2.106341347E-02 2.874764709E+02 0.000000000E+00 2.704276123E+02 -1.000000000E+00 -9.990000000E+02 0.000000000E+00 -9.990000000E+02
4.881273210E-01 9.143999815E-01 -1.813430339E-02 1.651482470E-02 2.896761780E+02 0.000000000E+00 2.704249573E+02 -1.000000000E+00 -9.990000000E+02 0.000000000E+00 -9.990000000E+02
4.881272912E-01 9.143999815E-01 -1.813429967E-02 1.651482470E-02 2.896762085E+02 0.000000000E+00 2.704249573E+02 -1.000000000E+00 -9.990000000E+02 0.000000000E+00 -9.990000000E+02
4.855982959E-01 9.143999815E-01 -1.763311587E-02 1.197496150E-02 2.918308411E+02 0.000000000E+00 2.704223022E+02 -1.000000000E+00 -9.990000000E+02 0.000000000E+00 -9.990000000E+02
4.855982661E-01 9.143999815E-01 -1.763311215E-02 1.197496150E-02 2.918308716E+02 0.000000000E+00 2.704223022E+02 -1.000000000E+00 -9.990000000E+02 0.000000000E+00 -9.990000000E+02
4.830689430E-01 9.143999815E-01 -1.713372953E-02 7.442581002E-03 2.939434814E+02 0.000000000E+00 2.704196777E+02 -1.000000000E+00 -9.990000000E+02 0.000000000E+00 -9.990000000E+02
4.830689132E-01 9.143999815E-01 -1.713372581E-02 7.442581002E-03 2.939435120E+02 0.000000000E+00 2.704196777E+02 -1.000000000E+00 -9.990000000E+02 0.000000000E+00 -9.990000000E+02
4.805392027E-01 9.143999815E-01 -1.663607545E-02 2.908953000E-03 2.960321655E+02 0.000000000E+00 2.704170227E+02 -1.000000000E+00 -9.990000000E+02 0.000000000E+00 -9.990000000E+02
4.805391729E-01 9.143999815E-01 -1.663607173E-02 2.908953000E-03 2.960321960E+02 0.000000000E+00 2.704170227E+02 -1.000000000E+00 -9.990000000E+02 0.000000000E+00 -9.990000000E+02
4.780091643E-01 9.143999815E-01 -1.614014991E-02 -1.642130781E-03 2.981255493E+02 0.000000000E+00 2.704143677E+02 -1.000000000E+00 -9.990000000E+02 0.000000000E+00 -9.990000000E+02
4.780091345E-01 9.143999815E-01 -1.614014618E-02 -1.642130781E-03 2.981255798E+02 0.000000000E+00 2.704143677E+02 -1.000000000E+00 -9.990000000E+02 0.000000000E+00 -9.990000000E+02
4.754787683E-01 9.143999815E-01 -1.564594172E-02 -6.216905545E-03 3.002398376E+02 0.000000000E+00 2.704117126E+02 -1.000000000E+00 -9.990000000E+02 0.000000000E+00 -9.990000000E+02
4.754787385E-01 9.143999815E-01 -1.564593799E-02 -6.216905545E-03 3.002398682E+02 0.000000000E+00 2.704117126E+02 -1.000000000E+00 -9.990000000E+02 0.000000000E+00 -9.990000000E+02
4.729480445E-01 9.143999815E-01 -1.515344717E-02 -1.080165524E-02 3.023717957E+02 0.000000000E+00 2.704090576E+02 -1.000000000E+00 -9.990000000E+02 0.000000000E+00 -9.990000000E+02
4.729480147E-01 9.143999815E-01 -1.515344344E-02 -1.080165524E-02 3.023718262E+02 0.000000000E+00 2.704090576E+02 -1.000000000E+00 -9.990000000E+02 0.000000000E+00 -9.990000000E+02
4.704169929E-01 9.143999815E-01 -1.466265228E-02 -1.539637893E-02 3.045010071E+02 0.000000000E+00 2.704063721E+02 -1.000000000E+00 -9.990000000E+02 0.000000000E+00 -9.990000000E+02
4.704169631E-01 9.143999815E-01 -1.466264855E-02 -1.539637893E-02 3.045010376E+02 0.000000000E+00 2.704063721E+02 -1.000000000E+00 -9.990000000E+02 0.000000000E+00 -9.990000000E+02
4.678856134E-01 9.143999815E-01 -1.417353470E-02 -2.001354843E-02 3.066136169E+02 0.000000000E+00 2.704036560E+02 -1.000000000E+00 -9.990000000E+02 0.000000000E+00 -9.990000000E+02
4.678855836E-01 9.143999815E-01 -1.417353097E-02 -2.001354843E-02 3.066136475E+02 0.000000000E+00 2.704036560E+02 -1.000000000E+00 -9.990000000E+02 0.000000000E+00 -9.990000000E+02
4.653538764E-01 9.143999815E-01 -1.368615218E-02 -2.463944443E-02 3.087160339E+02 0.000000000E+00 2.704009705E+02 -1.000000000E+00 -9.990000000E+02 0.000000000E+00 -9.990000000E+02
4.653538465E-01 9.143999815E-01 -1.368614845E-02 -2.463944443E-02 3.087160645E+02 0.000000000E+00 2.704009705E+02 -1.000000000E+00 -9.990000000E+02 0.000000000E+00 -9.990000000E+02
4.628218412E-01 9.143999815E-01 -1.320043392E-02 -2.923292108E-02 3.107895508E+02 0.000000000E+00 2.703982849E+02 -1.000000000E+00 -9.990000000E+02 0.000000000E+00 -9.990000000E+02
4.628218114E-01 9.143999815E-01 -1.320043020E-02 -2.923292108E-02 3.107895508E+02 0.000000000E+00 2.703982849E+02 -1.000000000E+00 -9.990000000E+02 0.000000000E+00 -9.990000000E+02
4.602895081E-01 9.143999815E-01 -1.271638833E-02 -3.380270675E-02 3.128064880E+02 0.000000000E+00 2.703956299E+02 -1.000000000E+00 -9.990000000E+02 0.000000000E+00 -9.990000000E+02
4.602894783E-01 9.143999815E-01 -1.271638460E-02 -3.380270675E-02 3.128064880E+02 0.000000000E+00 2.703956299E+02 -1.000000000E+00 -9.990000000E+02 0.000000000E+00 -9.990000000E+02
4.577568471E-01 9.143999815E-01 -1.223395951E-02 -3.838995099E-02 3.147852783E+02 0.000000000E+00 2.703929443E+02 -1.000000000E+00 -9.990000000E+02 0.000000000E+00 -9.990000000E+02
4.577568173E-01 9.143999815E-01 -1.223395579E-02 -3.838995099E-02 3.147852783E+02 0.000000000E+00 2.703929443E+02 -1.000000000E+00 -9.990000000E+02 0.000000000E+00 -9.990000000E+02
4.552238584E-01 9.143999815E-01 -1.175316889E-02 -4.298966378E-02 3.167562866E+02 0.000000000E+00 2.703902588E+02 -1.000000000E+00 -9.990000000E+02 0.000000000E+00 -9.990000000E+02
4.552238286E-01 9.143999815E-01 -1.175316516E-02 -4.298966378E-02 3.167562866E+02 0.000000000E+00 2.703902588E+02 -1.000000000E+00 -9.990000000E+02 0.000000000E+00 -9.990000000E+02
4.526905417E-01 9.143999815E-01 -1.127410959E-02 -4.754822701E-02 3.186743469E+02 0.000000000E+00 2.703876038E+02 -1.000000000E+00 -9.990000000E+02 0.000000000E+00 -9.990000000E+02
4.526905119E-01 9.143999815E-01 -1.127410587E-02 -4.754822701E-02 3.186743469E+02 0.000000000E+00 2.703876038E+02 -1.000000000E+00 -9.990000000E+02 0.000000000E+00 -9.990000000E+02
4.501569569E-01 9.143999815E-01 -1.079664659E-02 -5.207562074E-02 3.205073242E+02 0.000000000E+00 2.703849487E+02 -1.000000000E+00 -9.990000000E+02 0.000000000E+00 -9.990000000E+02
4.501569271E-01 9.143999815E-01 -1.079664286E-02 -5.207562074E-02 3.205073242E+02 0.000000000E+00 2.703849487E+02 -1.000000000E+00 -9.990000000E+02 0.000000000E+00 -9.990000000E+02
4.476230443E-01 9.143999815E-01 -1.032076683E-02 -5.662047118E-02 3.223161621E+02 0.000000000E+00 2.703822937E+02 -1.000000000E+00 -9.990000000E+02 0.000000000E+00 -9.990000000E+02
4.476230145E-01 9.143999815E-01 -1.032076310E-02 -5.662047118E-02 3.223161621E+02 0.000000000E+00 2.703822937E+02 -1.000000000E+00 -9.990000000E+02 0.000000000E+00 -9.990000000E+02
4.450888336E-01 9.143999815E-01 -9.846596979E-03 -6.115659326E-02 3.240973511E+02 0.000000000E+00 2.703796387E+02 -1.000000000E+00 -9.990000000E+02 0.000000000E+00 -9.990000000E+02
4.450888038E-01 9.143999815E-01 -9.846593253E-03 -6.115659326E-02 3.240973511E+02 0.000000000E+00 2.703796387E+02 -1.000000000E+00 -9.990000000E+02 0.000000000E+00 -9.990000000E+02
4.425542951E-01 9.143999815E-01 -9.374016896E-03 -6.566902250E-02 3.258157959E+02 0.000000000E+00 2.703770142E+02 -1.000000000E+00 -9.990000000E+02 0.000000000E+00 -9.990000000E+02
4.425542653E-01 9.143999815E-01 -9.374013171E-03 -6.566902250E-02 3.258157959E+02 0.000000000E+00 2.703770142E+02 -1.000000000E+00 -9.990000000E+02 0.000000000E+00 -9.990000000E+02
4.400194883E-01 9.143999815E-01 -8.902996778E-03 -7.017896324E-02 3.274917603E+02 0.000000000E+00 2.703743591E+02 -1.000000000E+00 -9.990000000E+02 0.000000000E+00 -9.990000000E+02
4.400194585E-01 9.143999815E-01 -8.902993053E-03 -7.017896324E-02 3.274917603E+02 0.000000000E+00 2.703743591E+02 -1.000000000E+00 -9.990000000E+02 0.000000000E+00 -9.990000000E+02
4.374843538E-01 9.143999815E-01 -8.433709852E-03 -7.469014823E-02 3.291319885E+02 0.000000000E+00 2.703717346E+02 -1.000000000E+00 -9.990000000E+02 0.000000000E+00 -9.990000000E+02
4.374843240E-01 9.143999815E-01 -8.433706127E-03 -7.469014823E-02 3.291319885E+02 0.000000000E+00 2.703717346E+02 -1.000000000E+00 -9.990000000E+02 0.000000000E+00 -9.990000000E+02
4.349489510E-01 9.143999815E-01 -7.965944707E-03 -7.920756191E-02 3.307348633E+02 0.000000000E+00 2.703690796E+02 -1.000000000E+00 -9.990000000E+02 0.000000000E+00 -9.990000000E+02
4.349489212E-01 9.143999815E-01 -7.965940982E-03 -7.920756191E-02 3.307348633E+02 0.000000000E+00 2.703690796E+02 -1.000000000E+00 -9.990000000E+02 0.000000000E+00 -9.990000000E+02
4.324132204E-01 9.143999815E-01 -7.499831729E-03 -8.372872323E-02 3.323041687E+02 0.000000000E+00 2.703664551E+02 -1.000000000E+00 -9.990000000E+02 0.000000000E+00 -9.990000000E+02
4.324131906E-01 9.143999815E-01 -7.499828469E-03 -8.372872323E-02 3.323041687E+02 0.000000000E+00 2.703664551E+02 -1.000000000E+00 -9.990000000E+02 0.000000000E+00 -9.990000000E+02
4.298772216E-01 9.143999815E-01 -7.035299204E-03 -8.824863285E-02 3.338403931E+02 0.000000000E+00 2.703638306E+02 -1.000000000E+00 -9.990000000E+02 0.000000000E+00 -9.990000000E+02
4.298771918E-01 9.143999815E-01 -7.035295945E-03 -8.824863285E-02 3.338403931E+02 0.000000000E+00 2.703638306E+02 -1.000000000E+00 -9.990000000E+02 0.000000000E+00 -9.990000000E+02
4.273409247E-01 9.143999815E-01 -6.572367158E-03 -9.275732189E-02 3.353369446E+02 0.000000000E+00 2.703611755E+02 -1.000000000E+00 -9.990000000E+02 0.000000000E+00 -9.990000000E+02
4.273408949E-01 9.143999815E-01 -6.572363898E-03 -9.275732189E-02 3.353369446E+02 0.000000000E+00 2.703611755E+02 -1.000000000E+00 -9.990000000E+02 0.000000000E+00 -9.990000000E+02
4.248043299E-01 9.143999815E-01 -6.111073308E-03 -9.724730998E-02 3.367901306E+02 0.000000000E+00 2.703585510E+02 -1.000000000E+00 -9.990000000E+02 0.000000000E+00 -9.990000000E+02
4.248043001E-01 9.143999815E-01 -6.111070048E-03 -9.724730998E-02 3.367901306E+02 0.000000000E+00 2.703585510E+02 -1.000000000E+00 -9.990000000E+02 0.000000000E+00 -9.990000000E+02
4.222674370E-01 9.143999815E-01 -5.651320331E-03 -1.017161012E-01 3.382156372E+02 0.000000000E+00 2.703559265E+02 -1.000000000E+00 -9.990000000E+02 0.000000000E+00 -9.990000000E+02
4.222674072E-01 9.143999815E-01 -5.651317071E-03 -1.017161012E-01 3.382156372E+02 0.000000000E+00 2.703559265E+02 -1.000000000E+00 -9.990000000E+02 0.000000000E+00 -9.990000000E+02
4.197302759E-01 9.143999815E-01 -5.193241872E-03 -1.061724275E-01 3.396311951E+02 0.000000000E+00 2.703533325E+02 -1.000000000E+00 -9.990000000E+02 0.000000000E+00 -9.990000000E+02
4.197302461E-01 9.143999815E-01 -5.193238612E-03 -1.061724275E-01 3.396311951E+02 0.000000000E+00 2.703533325E+02 -1.000000000E+00 -9.990000000E+02 0.000000000E+00 -9.990000000E+02
4.171928167E-01 9.143999815E-01 -4.736695439E-03 -1.106150299E-01 3.410084534E+02 0.000000000E+00 2.703507080E+02 -1.000000000E+00 -9.990000000E+02 0.000000000E+00 -9.990000000E+02
4.171927869E-01 9.143999815E-01 -4.736692179E-03 -1.106150299E-01 3.410084534E+02 0.000000000E+00 2.703507080E+02 -1.000000000E+00 -9.990000000E+02 0.000000000E+00 -9.990000000E+02
4.146550596E-01 9.143999815E-01 -4.281803034E-03 -1.150913015E-01 3.423688660E+02 0.000000000E+00 2.703480835E+02 -1.000000000E+00 -9.990000000E+02 0.000000000E+00 -9.990000000E+02
4.146550298E-01 9.143999815E-01 -4.281799775E-03 -1.150913015E-01 3.423688660E+02 0.000000000E+00 2.703480835E+02 -1.000000000E+00 -9.990000000E+02 0.000000000E+00 -9.990000000E+02
4.121170342E-01 9.143999815E-01 -3.828475019E-03 -1.196124628E-01 3.437918396E+02 0.000000000E+00 2.703454590E+02 -1.000000000E+00 -9.990000000E+02 0.000000000E+00 -9.990000000E+02
4.121170044E-01 9.143999815E-01 -3.828471759E-03 -1.196124628E-01 3.437918396E+02 0.000000000E+00 2.703454590E+02 -1.000000000E+00 -9.990000000E+02 0.000000000E+00 -9.990000000E+02
4.095786810E-01 9.143999815E-01 -3.376783803E-03 -1.241024509E-01 3.452521973E+02 0.000000000E+00 2.703428040E+02 -1.000000000E+00 -9.990000000E+02 0.000000000E+00 -9.990000000E+02
4.095786512E-01 9.143999815E-01 -3.376780543E-03 -1.241024509E-01 3.452521973E+02 0.000000000E+00 2.703428040E+02 -1.000000000E+00 -9.990000000E+02 0.000000000E+00 -9.990000000E+02
4.070400894E-01 9.143999815E-01 -2.926689573E-03 -1.285575181E-01 3.467248840E+02 0.000000000E+00 2.703402100E+02 -1.000000000E+00 -9.990000000E+02 0.000000000E+00 -9.990000000E+02
4.070400596E-01 9.143999815E-01 -2.926686313E-03 -1.285575181E-01 3.467248840E+02 0.000000000E+00 2.703402100E+02 -1.000000000E+00 -9.990000000E+02 0.000000000E+00 -9.990000000E+02
4.045011997E-01 9.143999815E-01 -2.478146460E-03 -1.329315454E-01 3.481614075E+02 0.000000000E+00 2.703376465E+02 -1.000000000E+00 -9.990000000E+02 0.000000000E+00 -9.990000000E+02
4.045011699E-01 9.143999815E-01 -2.478143200E-03 -1.329315454E-01 3.481614075E+02 0.000000000E+00 2.703376465E+02 -1.000000000E+00 -9.990000000E+02 0.000000000E+00 -9.990000000E+02
4.019620121E-01 9.143999815E-01 -2.031329321E-03 -1.371684223E-01 3.494584045E+02 0.000000000E+00 2.703351440E+02 -1.000000000E+00 -9.990000000E+02 0.000000000E+00 -9.990000000E+02
4.019619823E-01 9.143999815E-01 -2.031326061E-03 -1.371684223E-01 3.494584045E+02 0.000000000E+00 2.703351440E+02 -1.000000000E+00 -9.990000000E+02 0.000000000E+00 -9.990000000E+02
3.994225562E-01 9.143999815E-01 -1.585983438E-03 -1.414264888E-01 3.507274170E+02 0.000000000E+00 2.703326416E+02 -1.000000000E+00 -9.990000000E+02 0.000000000E+00 -9.990000000E+02
3.994225264E-01 9.143999815E-01 -1.585980179E-03 -1.414264888E-01 3.507274170E+02 0.000000000E+00 2.703326416E+02 -1.000000000E+00 -9.990000000E+02 0.000000000E+00 -9.990000000E+02
3.968828022E-01 9.143999815E-01 -1.142410561E-03 -1.458005160E-01 3.521835938E+02 0.000000000E+00 2.703300781E+02 -1.000000000E+00 -9.990000000E+02 0.000000000E+00 -9.990000000E+02
3.968827724E-01 9.143999815E-01 -1.142407302E-03 -1.458005160E-01 3.521835938E+02 0.000000000E+00 2.703300781E+02 -1.000000000E+00 -9.990000000E+02 0.000000000E+00 -9.990000000E+02
3.943427801E-01 9.143999815E-01 -7.003724459E-04 -1.501757950E-01 3.537254333E+02 0.000000000E+00 2.703275146E+02 -1.000000000E+00 -9.990000000E+02 0.000000000E+00 -9.990000000E+02
3.943427503E-01 9.143999815E-01 -7.003692444E-04 -1.501757950E-01 3.537254333E+02 0.000000000E+00 2.703275146E+02 -1.000000000E+00 -9.990000000E+02 0.000000000E+00 -9.990000000E+02
3.918024898E-01 9.143999815E-01 -2.599571890E-04 -1.544849873E-01 3.551205444E+02 0.000000000E+00 2.703249817E+02 -1.000000000E+00 -9.990000000E+02 0.000000000E+00 -9.990000000E+02
3.918024600E-01 9.143999815E-01 -2.599539876E-04 -1.544849873E-01 3.551205444E+02 0.000000000E+00 2.703249817E+02 -1.000000000E+00 -9.990000000E+02 0.000000000E+00 -9.990000000E+02
3.892618716E-01 9.143999815E-01 1.787438232E-04 -1.588191092E-01 3.564761963E+02 0.000000000E+00 2.703224487E+02 -1.000000000E+00 -9.990000000E+02 0.000000000E+00 -9.990000000E+02
3.892618418E-01 9.143999815E-01 1.787470246E-04 -1.588191092E-01 3.564761963E+02 0.000000000E+00 2.703224487E+02 -1.000000000E+00 -9.990000000E+02 0.000000000E+00 -9.990000000E+02
3.867210150E-01 9.143999815E-01 6.159219192E-04 -1.631669551E-01 3.578614807E+02 0.000000000E+00 2.703198853E+02 -1.000000000E+00 -9.990000000E+02 0.000000000E+00 -9.990000000E+02
3.867209852E-01 9.143999815E-01 6.159251207E-04 -1.631669551E-01 3.578614807E+02 0.000000000E+00 2.703198853E+02 -1.000000000E+00 -9.990000000E+02 0.000000000E+00 -9.990000000E+02
3.841798306E-01 9.143999815E-01 1.051343977E-03 -1.675098091E-01 3.591637573E+02 0.000000000E+00 2.703173523E+02 -1.000000000E+00 -9.990000000E+02 0.000000000E+00 -9.990000000E+02
3.841798007E-01 9.143999815E-01 1.051347121E-03 -1.675098091E-01 3.591637573E+02 0.000000000E+00 2.703173523E+02 -1.000000000E+00 -9.990000000E+02 0.000000000E+00 -9.990000000E+02
3.816384077E-01 9.143999815E-01 1.485136803E-03 -1.719050407E-01 3.604376221E+02 0.000000000E+00 2.703147583E+02 -1.000000000E+00 -9.990000000E+02 0.000000000E+00 -9.990000000E+02
3.816383779E-01 9.143999815E-01 1.485139946E-03 -1.719050407E-01 3.604376221E+02 0.000000000E+00 2.703147583E+02 -1.000000000E+00 -9.990000000E+02 0.000000000E+00 -9.990000000E+02
3.790966868E-01 9.143999815E-01 1.917375368E-03 -1.762728393E-01 3.616903687E+02 0.000000000E+00 2.703121948E+02 -1.000000000E+00 -9.990000000E+02 0.000000000E+00 -9.990000000E+02
3.790966570E-01 9.143999815E-01 1.917378511E-03 -1.762728393E-01 3.616903687E+02 0.000000000E+00 2.703121948E+02 -1.000000000E+00 -9.990000000E+02 0.000000000E+00 -9.990000000E+02
3.765546679E-01 9.143999815E-01 2.347750124E-03 -1.805957407E-01 3.629177551E+02 0.000000000E+00 2.703096619E+02 -1.000000000E+00 -9.990000000E+02 0.000000000E+00 -9.990000000E+02
3.765546381E-01 9.143999815E-01 2.347753150E-03 -1.805957407E-01 3.629177551E+02 0.000000000E+00 2.703096619E+02 -1.000000000E+00 -9.990000000E+02 0.000000000E+00 -9.990000000E+02
3.740123510E-01 9.143999815E-01 2.776533365E-03 -1.848887205E-01 3.641438293E+02 0.000000000E+00 2.703071289E+02 -1.000000000E+00 -9.990000000E+02 0.000000000E+00 -9.990000000E+02
3.740123212E-01 9.143999815E-01 2.776536392E-03 -1.848887205E-01 3.641438293E+02 0.000000000E+00 2.703071289E+02 -1.000000000E+00 -9.990000000E+02 0.000000000E+00 -9.990000000E+02
3.714697957E-01 9.143999815E-01 3.203731962E-03 -1.891305745E-01 3.653215942E+02 0.000000000E+00 2.703046265E+02 -1.000000000E+00 -9.990000000E+02 0.000000000E+00 -9.990000000E+02
3.714697659E-01 9.143999815E-01 3.203734988E-03 -1.891305745E-01 3.653215942E+02 0.000000000E+00 2.703046265E+02 -1.000000000E+00 -9.990000000E+02 0.000000000E+00 -9.990000000E+02
3.689269125E-01 9.143999815E-01 3.629022976E-03 -1.934597194E-01 3.665381470E+02 0.000000000E+00 2.703020935E+02 -1.000000000E+00 -9.990000000E+02 0.000000000E+00 -9.990000000E+02
3.689268827E-01 9.143999815E-01 3.629026003E-03 -1.934597194E-01 3.665381470E+02 0.000000000E+00 2.703020935E+02 -1.000000000E+00 -9.990000000E+02 0.000000000E+00 -9.990000000E+02
3.663837612E-01 9.143999815E-01 4.052697681E-03 -1.978861243E-01 3.678749695E+02 0.000000000E+00 2.702994995E+02 -1.000000000E+00 -9.990000000E+02 0.000000000E+00 -9.990000000E+02
3.663837314E-01 9.143999815E-01 4.052700941E-03 -1.978861243E-01 3.678749695E+02 0.000000000E+00 2.702994995E+02 -1.000000000E+00 -9.990000000E+02 0.000000000E+00 -9.990000000E+02
3.638403416E-01 9.143999815E-01 4.474746529E-03 -2.022401989E-01 3.692521973E+02 0.000000000E+00 2.702969360E+02 -1.000000000E+00 -9.990000000E+02 0.000000000E+00 -9.990000000E+02
3.638403118E-01 9.143999815E-01 4.474749789E-03 -2.022401989E-01 3.692521973E+02 0.000000000E+00 2.702969360E+02 -1.000000000E+00 -9.990000000E+02 0.000000000E+00 -9.990000000E+02
3.612965941E-01 9.143999815E-01 4.894873593E-03 -2.065219581E-01 3.706098633E+02 0.000000000E+00 2.702944031E+02 -1.000000000E+00 -9.990000000E+02 0.000000000E+00 -9.990000000E+02
3.612965643E-01 9.143999815E-01 4.894876853E-03 -2.065219581E-01 3.706098633E+02 0.000000000E+00 2.702944031E+02 -1.000000000E+00 -9.990000000E+02 0.000000000E+00 -9.990000000E+02
3.587525785E-01 9.143999815E-01 5.313317291E-03 -2.108436078E-01 3.719619141E+02 0.000000000E+00 2.702918701E+02 -1.000000000E+00 -9.990000000E+02 0.000000000E+00 -9.990000000E+02
3.587525487E-01 9.143999815E-01 5.313320551E-03 -2.108436078E-01 3.719619141E+02 0.000000000E+00 2.702918701E+02 -1.000000000E+00 -9.990000000E+02 0.000000000E+00 -9.990000000E+02
3.562082946E-01 9.143999815E-01 5.730123725E-03 -2.151927054E-01 3.732888794E+02 0.000000000E+00 2.702893066E+02 -1.000000000E+00 -9.990000000E+02 0.000000000E+00 -9.990000000E+02
3.562082648E-01 9.143999815E-01 5.730126984E-03 -2.151927054E-01 3.732888794E+02 0.000000000E+00 2.702893066E+02 -1.000000000E+00 -9.990000000E+02 0.000000000E+00 -9.990000000E+02
3.536637127E-01 9.143999815E-01 6.145041902E-03 -2.195318192E-01 3.745678101E+02 0.000000000E+00 2.702867432E+02 -1.000000000E+00 -9.990000000E+02 0.000000000E+00 -9.990000000E+02
3.536636829E-01 9.143999815E-01 6.145044696E-03 -2.195318192E-01 3.745678101E+02 0.000000000E+00 2.702867432E+02 -1.000000000E+00 -9.990000000E+02 0.000000000E+00 -9.990000000E+02
3.511188328E-01 9.143999815E-01 6.558203604E-03 -2.238759249E-01 3.758443604E+02 0.000000000E+00 2.702841797E+02 -1.000000000E+00 -9.990000000E+02 0.000000000E+00 -9.990000000E+02
3.511188030E-01 9.143999815E-01 6.558206398E-03 -2.238759249E-01 3.758443604E+02 0.000000000E+00 2.702841797E+02 -1.000000000E+00 -9.990000000E+02 0.000000000E+00 -9.990000000E+02
3.485736251E-01 9.143999815E-01 6.969499402E-03 -2.282337397E-01 3.771982422E+02 0.000000000E+00 2.702816162E+02 -1.000000000E+00 -9.990000000E+02 0.000000000E+00 -9.990000000E+02
3.485735953E-01 9.143999815E-01 6.969502196E-03 -2.282337397E-01 3.771982422E+02 0.000000000E+00 2.702816162E+02 -1.000000000E+00 -9.990000000E+02 0.000000000E+00 -9.990000000E+02