#+++++++++++++++++++++++++++++++++++++++++++++++++++++++++++++++++++++++++++++++++++++++++++++++++++++++++++++++++++++++++++++++++
#
#   IPW-3 Cut/Slice DATA SUBMITTAL FORM for Test Case NACA0012_AE3933, May 18th 2026
#
#       NOMENCLATURE:
#                  X [m]:  X-coordinate of the surface (clean for reference)
#                  Y [m]:  Y-coordinate of the surface (clean for reference)
#                  Z [m]:  Z-coordinate of the surface (clean for reference)
#                 Cp [-]:  Pressure coefficient
#            HTC [W/m2K]:  Convective Heat Transfer Coefficient (on the rough surface)
#               Beta [-]:  Collection efficiency
#                 Ts [K]:  Surface temperature
#                 FF [-]:  Freezing fraction
#                  k [m]:  Surface roughness height if variable (OPTIONAL)
#         RhoIce [kg/m3]:  Ice density (OPTIONAL)
#      HTC_CLEAN [W/m2K]:  Convective Heat Transfer Coefficient on the surface without roughness (OPTIONAL)
#
#                XXmm:  Roughness height used for the case, in mm.
#                       In the zone name, use the format KS_XXmm.
#                       For example, if k_s = 1.5 mm, use KS_1p5mm. 
#                       For Variable roughness, use KS_VAR
#
#    FLOW CONDITIONS:
#                                   AOA: 4.0 deg
#                           Mach Number: 0.3127 [-]
#       Mean aerodynamic chord (M.A.C.): 0.5334 [m]
#                       Reynolds Number: 3.8947 million (based on MAC)
#                       Freestream Temp: 270.95 [K]
#                        Reference area: 0.97548 [m2]
#               Moment Reference Center: 0.13335, 0, 0 [m] (X, Y, Z)
#
#    ICING CONDITIONS:
#                           Icing Time: 420 [s]
#                                  LWC: 0.55 [g/m3]
#                                  MVD: 20 [μm]
#
#              NOTES: 1. Please use at least 5 decimal places in the numerical values
#                     2. If data are NOT provided, please fill data fields with a numerical value of "-999" 
#
#++++++++++++++++++++++++++++++++++++++++++++++++++++++++++++++++++++++++++++++++++++++++++++++++++++++++++++++++++++

                                                    <- Optional ->                 
VARIABLES = "X" "Y" "Z" "Cp" "HTC" "Beta" "Ts" "FF" "k" "RhoIce" "HTC_CLEAN"

ZONE T="SLICE_Y_0p9144_BINS01_KS_1mm_CUTDATA"
5.324723721E-01 9.143999815E-01 -2.723562904E-02 7.723251730E-02 2.367619629E+02 0.000000000E+00 2.704602356E+02 -1.000000000E+00 -9.990000000E+02 0.000000000E+00 -9.990000000E+02
5.309804082E-01 9.143999815E-01 -2.691932954E-02 8.892443776E-02 2.576754456E+02 0.000000000E+00 2.704670410E+02 -1.000000000E+00 -9.990000000E+02 0.000000000E+00 -9.990000000E+02
5.309804082E-01 9.143999815E-01 -2.691932768E-02 8.892443776E-02 2.576755371E+02 0.000000000E+00 2.704670410E+02 -1.000000000E+00 -9.990000000E+02 0.000000000E+00 -9.990000000E+02
5.285930634E-01 9.143999815E-01 -2.641456388E-02 8.361151814E-02 2.620167542E+02 0.000000000E+00 2.704639282E+02 -1.000000000E+00 -9.990000000E+02 0.000000000E+00 -9.990000000E+02
5.285930634E-01 9.143999815E-01 -2.641456202E-02 8.361151814E-02 2.620167847E+02 0.000000000E+00 2.704639282E+02 -1.000000000E+00 -9.990000000E+02 0.000000000E+00 -9.990000000E+02
5.247724056E-01 9.143999815E-01 -2.561072074E-02 7.667516917E-02 2.651037598E+02 0.000000000E+00 2.704599304E+02 -1.000000000E+00 -9.990000000E+02 0.000000000E+00 -9.990000000E+02
5.247724056E-01 9.143999815E-01 -2.561071701E-02 7.667516917E-02 2.651037598E+02 0.000000000E+00 2.704599304E+02 -1.000000000E+00 -9.990000000E+02 0.000000000E+00 -9.990000000E+02
5.196167231E-01 9.143999815E-01 -2.453357726E-02 6.845702976E-02 2.675315247E+02 0.000000000E+00 2.704551392E+02 -1.000000000E+00 -9.990000000E+02 0.000000000E+00 -9.990000000E+02
5.196167231E-01 9.143999815E-01 -2.453357354E-02 6.845702976E-02 2.675315247E+02 0.000000000E+00 2.704551392E+02 -1.000000000E+00 -9.990000000E+02 0.000000000E+00 -9.990000000E+02
5.144593120E-01 9.143999815E-01 -2.346470766E-02 5.985984579E-02 2.706563110E+02 0.000000000E+00 2.704501343E+02 -1.000000000E+00 -9.990000000E+02 0.000000000E+00 -9.990000000E+02
5.144593120E-01 9.143999815E-01 -2.346470393E-02 5.985984579E-02 2.706563110E+02 0.000000000E+00 2.704501343E+02 -1.000000000E+00 -9.990000000E+02 0.000000000E+00 -9.990000000E+02
5.093002915E-01 9.143999815E-01 -2.240378596E-02 5.165043846E-02 2.738564148E+02 0.000000000E+00 2.704453735E+02 -1.000000000E+00 -9.990000000E+02 0.000000000E+00 -9.990000000E+02
5.093002915E-01 9.143999815E-01 -2.240378223E-02 5.165043846E-02 2.738564148E+02 0.000000000E+00 2.704453735E+02 -1.000000000E+00 -9.990000000E+02 0.000000000E+00 -9.990000000E+02
5.041396022E-01 9.143999815E-01 -2.135082893E-02 4.350337386E-02 2.764988708E+02 0.000000000E+00 2.704406433E+02 -1.000000000E+00 -9.990000000E+02 0.000000000E+00 -9.990000000E+02
5.041396022E-01 9.143999815E-01 -2.135082521E-02 4.350337386E-02 2.764988708E+02 0.000000000E+00 2.704406433E+02 -1.000000000E+00 -9.990000000E+02 0.000000000E+00 -9.990000000E+02
4.989774227E-01 9.143999815E-01 -2.030550130E-02 3.484883532E-02 2.789814453E+02 0.000000000E+00 2.704356079E+02 -1.000000000E+00 -9.990000000E+02 0.000000000E+00 -9.990000000E+02
4.989773929E-01 9.143999815E-01 -2.030549757E-02 3.484883532E-02 2.789814453E+02 0.000000000E+00 2.704356079E+02 -1.000000000E+00 -9.990000000E+02 0.000000000E+00 -9.990000000E+02
4.938136339E-01 9.143999815E-01 -1.926789246E-02 2.570427209E-02 2.820090332E+02 0.000000000E+00 2.704302979E+02 -1.000000000E+00 -9.990000000E+02 0.000000000E+00 -9.990000000E+02
4.938136041E-01 9.143999815E-01 -1.926788874E-02 2.570427209E-02 2.820090332E+02 0.000000000E+00 2.704302979E+02 -1.000000000E+00 -9.990000000E+02 0.000000000E+00 -9.990000000E+02
4.886483252E-01 9.143999815E-01 -1.823780499E-02 1.645497419E-02 2.858332825E+02 0.000000000E+00 2.704249268E+02 -1.000000000E+00 -9.990000000E+02 0.000000000E+00 -9.990000000E+02
4.886482954E-01 9.143999815E-01 -1.823780127E-02 1.645497419E-02 2.858332825E+02 0.000000000E+00 2.704249268E+02 -1.000000000E+00 -9.990000000E+02 0.000000000E+00 -9.990000000E+02
4.834815860E-01 9.143999815E-01 -1.721507870E-02 7.280487567E-03 2.901065979E+02 0.000000000E+00 2.704195557E+02 -1.000000000E+00 -9.990000000E+02 0.000000000E+00 -9.990000000E+02
4.834815562E-01 9.143999815E-01 -1.721507497E-02 7.280487567E-03 2.901066284E+02 0.000000000E+00 2.704195557E+02 -1.000000000E+00 -9.990000000E+02 0.000000000E+00 -9.990000000E+02
4.783133864E-01 9.143999815E-01 -1.619965211E-02 -1.887764665E-03 2.944170532E+02 0.000000000E+00 2.704142456E+02 -1.000000000E+00 -9.990000000E+02 0.000000000E+00 -9.990000000E+02
4.783133566E-01 9.143999815E-01 -1.619964838E-02 -1.887764665E-03 2.944170837E+02 0.000000000E+00 2.704142456E+02 -1.000000000E+00 -9.990000000E+02 0.000000000E+00 -9.990000000E+02
4.731437862E-01 9.143999815E-01 -1.519145351E-02 -1.110339817E-02 2.986374817E+02 0.000000000E+00 2.704088745E+02 -1.000000000E+00 -9.990000000E+02 0.000000000E+00 -9.990000000E+02
4.731437564E-01 9.143999815E-01 -1.519144978E-02 -1.110339817E-02 2.986375122E+02 0.000000000E+00 2.704088745E+02 -1.000000000E+00 -9.990000000E+02 0.000000000E+00 -9.990000000E+02
4.679728150E-01 9.143999815E-01 -1.419036742E-02 -2.033399418E-02 3.028085327E+02 0.000000000E+00 2.704034729E+02 -1.000000000E+00 -9.990000000E+02 0.000000000E+00 -9.990000000E+02
4.679727852E-01 9.143999815E-01 -1.419036370E-02 -2.033399418E-02 3.028085632E+02 0.000000000E+00 2.704034729E+02 -1.000000000E+00 -9.990000000E+02 0.000000000E+00 -9.990000000E+02
4.628004432E-01 9.143999815E-01 -1.319633517E-02 -2.954838052E-02 3.069738464E+02 0.000000000E+00 2.703981018E+02 -1.000000000E+00 -9.990000000E+02 0.000000000E+00 -9.990000000E+02
4.628004134E-01 9.143999815E-01 -1.319633145E-02 -2.954838052E-02 3.069738770E+02 0.000000000E+00 2.703981018E+02 -1.000000000E+00 -9.990000000E+02 0.000000000E+00 -9.990000000E+02
4.576267898E-01 9.143999815E-01 -1.220924500E-02 -3.875279054E-02 3.111575012E+02 0.000000000E+00 2.703927307E+02 -1.000000000E+00 -9.990000000E+02 0.000000000E+00 -9.990000000E+02
4.576267600E-01 9.143999815E-01 -1.220924128E-02 -3.875279054E-02 3.111575317E+02 0.000000000E+00 2.703927307E+02 -1.000000000E+00 -9.990000000E+02 0.000000000E+00 -9.990000000E+02
4.524517953E-01 9.143999815E-01 -1.122901775E-02 -4.795470834E-02 3.153607483E+02 0.000000000E+00 2.703873596E+02 -1.000000000E+00 -9.990000000E+02 0.000000000E+00 -9.990000000E+02
4.524517655E-01 9.143999815E-01 -1.122901402E-02 -4.795470834E-02 3.153607788E+02 0.000000000E+00 2.703873596E+02 -1.000000000E+00 -9.990000000E+02 0.000000000E+00 -9.990000000E+02
4.472755194E-01 9.143999815E-01 -1.025567949E-02 -5.712046847E-02 3.195643616E+02 0.000000000E+00 2.703820190E+02 -1.000000000E+00 -9.990000000E+02 0.000000000E+00 -9.990000000E+02
4.472754896E-01 9.143999815E-01 -1.025567576E-02 -5.712046847E-02 3.195643921E+02 0.000000000E+00 2.703820190E+02 -1.000000000E+00 -9.990000000E+02 0.000000000E+00 -9.990000000E+02
4.420979619E-01 9.143999815E-01 -9.289108217E-03 -6.623011827E-02 3.237237244E+02 0.000000000E+00 2.703766785E+02 -1.000000000E+00 -9.990000000E+02 0.000000000E+00 -9.990000000E+02
4.420979321E-01 9.143999815E-01 -9.289104491E-03 -6.623011827E-02 3.237237244E+02 0.000000000E+00 2.703766785E+02 -1.000000000E+00 -9.990000000E+02 0.000000000E+00 -9.990000000E+02
4.369191527E-01 9.143999815E-01 -8.329233155E-03 -7.529612631E-02 3.277898560E+02 0.000000000E+00 2.703713989E+02 -1.000000000E+00 -9.990000000E+02 0.000000000E+00 -9.990000000E+02
4.369191229E-01 9.143999815E-01 -8.329229429E-03 -7.529612631E-02 3.277898560E+02 0.000000000E+00 2.703713989E+02 -1.000000000E+00 -9.990000000E+02 0.000000000E+00 -9.990000000E+02
4.317391217E-01 9.143999815E-01 -7.376157679E-03 -8.432472497E-02 3.317471924E+02 0.000000000E+00 2.703660889E+02 -1.000000000E+00 -9.990000000E+02 0.000000000E+00 -9.990000000E+02
4.317390919E-01 9.143999815E-01 -7.376154419E-03 -8.432472497E-02 3.317471924E+02 0.000000000E+00 2.703660889E+02 -1.000000000E+00 -9.990000000E+02 0.000000000E+00 -9.990000000E+02
4.265578389E-01 9.143999815E-01 -6.429791916E-03 -9.334459901E-02 3.356044006E+02 0.000000000E+00 2.703608398E+02 -1.000000000E+00 -9.990000000E+02 0.000000000E+00 -9.990000000E+02
4.265578091E-01 9.143999815E-01 -6.429788657E-03 -9.334459901E-02 3.356044006E+02 0.000000000E+00 2.703608398E+02 -1.000000000E+00 -9.990000000E+02 0.000000000E+00 -9.990000000E+02
4.213753343E-01 9.143999815E-01 -5.490096286E-03 -1.024018824E-01 3.394065552E+02 0.000000000E+00 2.703555298E+02 -1.000000000E+00 -9.990000000E+02 0.000000000E+00 -9.990000000E+02
4.213753045E-01 9.143999815E-01 -5.490093026E-03 -1.024018824E-01 3.394065552E+02 0.000000000E+00 2.703555298E+02 -1.000000000E+00 -9.990000000E+02 0.000000000E+00 -9.990000000E+02
4.161916375E-01 9.143999815E-01 -4.557065200E-03 -1.114666462E-01 3.431726379E+02 0.000000000E+00 2.703502197E+02 -1.000000000E+00 -9.990000000E+02 0.000000000E+00 -9.990000000E+02
4.161916077E-01 9.143999815E-01 -4.557061940E-03 -1.114666462E-01 3.431726379E+02 0.000000000E+00 2.703502197E+02 -1.000000000E+00 -9.990000000E+02 0.000000000E+00 -9.990000000E+02
4.110067487E-01 9.143999815E-01 -3.630721942E-03 -1.204728037E-01 3.468268433E+02 0.000000000E+00 2.703449402E+02 -1.000000000E+00 -9.990000000E+02 0.000000000E+00 -9.990000000E+02
4.110067189E-01 9.143999815E-01 -3.630718682E-03 -1.204728037E-01 3.468268433E+02 0.000000000E+00 2.703449402E+02 -1.000000000E+00 -9.990000000E+02 0.000000000E+00 -9.990000000E+02
4.058206379E-01 9.143999815E-01 -2.711075358E-03 -1.294427961E-01 3.503180847E+02 0.000000000E+00 2.703396606E+02 -1.000000000E+00 -9.990000000E+02 0.000000000E+00 -9.990000000E+02
4.058206081E-01 9.143999815E-01 -2.711072098E-03 -1.294427961E-01 3.503180847E+02 0.000000000E+00 2.703396606E+02 -1.000000000E+00 -9.990000000E+02 0.000000000E+00 -9.990000000E+02
4.006333649E-01 9.143999815E-01 -1.798137557E-03 -1.384452134E-01 3.536860352E+02 0.000000000E+00 2.703344116E+02 -1.000000000E+00 -9.990000000E+02 0.000000000E+00 -9.990000000E+02
4.006333351E-01 9.143999815E-01 -1.798134181E-03 -1.384452134E-01 3.536860352E+02 0.000000000E+00 2.703344116E+02 -1.000000000E+00 -9.990000000E+02 0.000000000E+00 -9.990000000E+02
3.954448998E-01 9.143999815E-01 -8.919443935E-04 -1.474700868E-01 3.569710693E+02 0.000000000E+00 2.703291016E+02 -1.000000000E+00 -9.990000000E+02 0.000000000E+00 -9.990000000E+02
3.954448700E-01 9.143999815E-01 -8.919410757E-04 -1.474700868E-01 3.569710693E+02 0.000000000E+00 2.703291016E+02 -1.000000000E+00 -9.990000000E+02 0.000000000E+00 -9.990000000E+02
3.902552724E-01 9.143999815E-01 7.488391475E-06 -1.564550400E-01 3.601602173E+02 0.000000000E+00 2.703238220E+02 -1.000000000E+00 -9.990000000E+02 0.000000000E+00 -9.990000000E+02
3.902552426E-01 9.143999815E-01 7.491667020E-06 -1.564550400E-01 3.601602173E+02 0.000000000E+00 2.703238220E+02 -1.000000000E+00 -9.990000000E+02 0.000000000E+00 -9.990000000E+02
3.850644529E-01 9.143999815E-01 8.999599377E-04 -1.653078347E-01 3.631526794E+02 0.000000000E+00 2.703186340E+02 -1.000000000E+00 -9.990000000E+02 0.000000000E+00 -9.990000000E+02
3.850644231E-01 9.143999815E-01 8.999631973E-04 -1.653078347E-01 3.631526794E+02 0.000000000E+00 2.703186340E+02 -1.000000000E+00 -9.990000000E+02 0.000000000E+00 -9.990000000E+02
3.798724115E-01 9.143999815E-01 1.785555971E-03 -1.739262193E-01 3.657761841E+02 0.000000000E+00 2.703135681E+02 -1.000000000E+00 -9.990000000E+02 0.000000000E+00 -9.990000000E+02
3.798723817E-01 9.143999815E-01 1.785559230E-03 -1.739262193E-01 3.657761841E+02 0.000000000E+00 2.703135681E+02 -1.000000000E+00 -9.990000000E+02 0.000000000E+00 -9.990000000E+02
3.746792376E-01 9.143999815E-01 2.664232394E-03 -1.824273914E-01 3.680336609E+02 0.000000000E+00 2.703085632E+02 -1.000000000E+00 -9.990000000E+02 0.000000000E+00 -9.990000000E+02
3.746792078E-01 9.143999815E-01 2.664235653E-03 -1.824273914E-01 3.680336609E+02 0.000000000E+00 2.703085632E+02 -1.000000000E+00 -9.990000000E+02 0.000000000E+00 -9.990000000E+02
3.694848716E-01 9.143999815E-01 3.535927739E-03 -1.910806894E-01 3.702288208E+02 0.000000000E+00 2.703034668E+02 -1.000000000E+00 -9.990000000E+02 0.000000000E+00 -9.990000000E+02
3.694848418E-01 9.143999815E-01 3.535930999E-03 -1.910806894E-01 3.702288208E+02 0.000000000E+00 2.703034668E+02 -1.000000000E+00 -9.990000000E+02 0.000000000E+00 -9.990000000E+02
3.642892838E-01 9.143999815E-01 4.400311038E-03 -1.999235004E-01 3.725956726E+02 0.000000000E+00 2.702982788E+02 -1.000000000E+00 -9.990000000E+02 0.000000000E+00 -9.990000000E+02
3.642892540E-01 9.143999815E-01 4.400314298E-03 -1.999235004E-01 3.725956726E+02 0.000000000E+00 2.702982788E+02 -1.000000000E+00 -9.990000000E+02 0.000000000E+00 -9.990000000E+02
3.590925038E-01 9.143999815E-01 5.257509649E-03 -2.088386416E-01 3.750506897E+02 0.000000000E+00 2.702930298E+02 -1.000000000E+00 -9.990000000E+02 0.000000000E+00 -9.990000000E+02
3.590924740E-01 9.143999815E-01 5.257512908E-03 -2.088386416E-01 3.750506897E+02 0.000000000E+00 2.702930298E+02 -1.000000000E+00 -9.990000000E+02 0.000000000E+00 -9.990000000E+02
3.538945317E-01 9.143999815E-01 6.107490975E-03 -2.177650034E-01 3.774802246E+02 0.000000000E+00 2.702877808E+02 -1.000000000E+00 -9.990000000E+02 0.000000000E+00 -9.990000000E+02
3.538945019E-01 9.143999815E-01 6.107494235E-03 -2.177650034E-01 3.774802246E+02 0.000000000E+00 2.702877808E+02 -1.000000000E+00 -9.990000000E+02 0.000000000E+00 -9.990000000E+02
3.486953378E-01 9.143999815E-01 6.949872710E-03 -2.267225385E-01 3.799475708E+02 0.000000000E+00 2.702825012E+02 -1.000000000E+00 -9.990000000E+02 0.000000000E+00 -9.990000000E+02
3.486953080E-01 9.143999815E-01 6.949875969E-03 -2.267225385E-01 3.799475708E+02 0.000000000E+00 2.702825012E+02 -1.000000000E+00 -9.990000000E+02 0.000000000E+00 -9.990000000E+02
3.434949219E-01 9.143999815E-01 7.784670684E-03 -2.357361764E-01 3.825557556E+02 0.000000000E+00 2.702771912E+02 -1.000000000E+00 -9.990000000E+02 0.000000000E+00 -9.990000000E+02
3.434948921E-01 9.143999815E-01 7.784673944E-03 -2.357361764E-01 3.825557556E+02 0.000000000E+00 2.702771912E+02 -1.000000000E+00 -9.990000000E+02 0.000000000E+00 -9.990000000E+02
3.382932544E-01 9.143999815E-01 8.611731231E-03 -2.447822392E-01 3.853309937E+02 0.000000000E+00 2.702718506E+02 -1.000000000E+00 -9.990000000E+02 0.000000000E+00 -9.990000000E+02
3.382932246E-01 9.143999815E-01 8.611734025E-03 -2.447822392E-01 3.853309937E+02 0.000000000E+00 2.702718506E+02 -1.000000000E+00 -9.990000000E+02 0.000000000E+00 -9.990000000E+02
3.330903351E-01 9.143999815E-01 9.430883452E-03 -2.538507283E-01 3.882513733E+02 0.000000000E+00 2.702665100E+02 -1.000000000E+00 -9.990000000E+02 0.000000000E+00 -9.990000000E+02
3.330903053E-01 9.143999815E-01 9.430886246E-03 -2.538507283E-01 3.882513733E+02 0.000000000E+00 2.702665100E+02 -1.000000000E+00 -9.990000000E+02 0.000000000E+00 -9.990000000E+02
3.278861642E-01 9.143999815E-01 1.024194807E-02 -2.629504204E-01 3.912968445E+02 0.000000000E+00 2.702611389E+02 -1.000000000E+00 -9.990000000E+02 0.000000000E+00 -9.990000000E+02
3.278861344E-01 9.143999815E-01 1.024195086E-02 -2.629504204E-01 3.912968445E+02 0.000000000E+00 2.702611389E+02 -1.000000000E+00 -9.990000000E+02 0.000000000E+00 -9.990000000E+02
3.226807117E-01 9.143999815E-01 1.104476955E-02 -2.720849812E-01 3.944742737E+02 0.000000000E+00 2.702557373E+02 -1.000000000E+00 -9.990000000E+02 0.000000000E+00 -9.990000000E+02
3.226806819E-01 9.143999815E-01 1.104477234E-02 -2.720849812E-01 3.944742737E+02 0.000000000E+00 2.702557373E+02 -1.000000000E+00 -9.990000000E+02 0.000000000E+00 -9.990000000E+02
3.174739778E-01 9.143999815E-01 1.183915976E-02 -2.812545002E-01 3.977988892E+02 0.000000000E+00 2.702503357E+02 -1.000000000E+00 -9.990000000E+02 0.000000000E+00 -9.990000000E+02
3.174739480E-01 9.143999815E-01 1.183916256E-02 -2.812545002E-01 3.977988892E+02 0.000000000E+00 2.702503357E+02 -1.000000000E+00 -9.990000000E+02 0.000000000E+00 -9.990000000E+02
3.122659028E-01 9.143999815E-01 1.262492500E-02 -2.904526591E-01 4.012538757E+02 0.000000000E+00 2.702449036E+02 -1.000000000E+00 -9.990000000E+02 0.000000000E+00 -9.990000000E+02
3.122658730E-01 9.143999815E-01 1.262492780E-02 -2.904526591E-01 4.012538757E+02 0.000000000E+00 2.702449036E+02 -1.000000000E+00 -9.990000000E+02 0.000000000E+00 -9.990000000E+02
3.070565164E-01 9.143999815E-01 1.340183616E-02 -2.996944785E-01 4.048534546E+02 0.000000000E+00 2.702394409E+02 -1.000000000E+00 -9.990000000E+02 0.000000000E+00 -9.990000000E+02
3.070564866E-01 9.143999815E-01 1.340183895E-02 -2.996944785E-01 4.048534546E+02 0.000000000E+00 2.702394409E+02 -1.000000000E+00 -9.990000000E+02 0.000000000E+00 -9.990000000E+02
3.018457890E-01 9.143999815E-01 1.416966878E-02 -3.089874387E-01 4.086610718E+02 0.000000000E+00 2.702339478E+02 -1.000000000E+00 -9.990000000E+02 0.000000000E+00 -9.990000000E+02
3.018457592E-01 9.143999815E-01 1.416967157E-02 -3.089874387E-01 4.086610718E+02 0.000000000E+00 2.702339478E+02 -1.000000000E+00 -9.990000000E+02 0.000000000E+00 -9.990000000E+02
2.966336906E-01 9.143999815E-01 1.492818724E-02 -3.183464408E-01 4.126379395E+02 0.000000000E+00 2.702283936E+02 -1.000000000E+00 -9.990000000E+02 0.000000000E+00 -9.990000000E+02
2.966336608E-01 9.143999815E-01 1.492819004E-02 -3.183464408E-01 4.126379395E+02 0.000000000E+00 2.702283936E+02 -1.000000000E+00 -9.990000000E+02 0.000000000E+00 -9.990000000E+02
2.914202213E-01 9.143999815E-01 1.567713171E-02 -3.278127015E-01 4.165371704E+02 0.000000000E+00 2.702227783E+02 -1.000000000E+00 -9.990000000E+02 0.000000000E+00 -9.990000000E+02
2.914201915E-01 9.143999815E-01 1.567713358E-02 -3.278127015E-01 4.165371704E+02 0.000000000E+00 2.702227783E+02 -1.000000000E+00 -9.990000000E+02 0.000000000E+00 -9.990000000E+02
2.862053216E-01 9.143999815E-01 1.641622931E-02 -3.373749554E-01 4.203476868E+02 0.000000000E+00 2.702171326E+02 -1.000000000E+00 -9.990000000E+02 0.000000000E+00 -9.990000000E+02
2.862052917E-01 9.143999815E-01 1.641623117E-02 -3.373749554E-01 4.203476868E+02 0.000000000E+00 2.702171326E+02 -1.000000000E+00 -9.990000000E+02 0.000000000E+00 -9.990000000E+02
2.809890211E-01 9.143999815E-01 1.714520343E-02 -3.470195234E-01 4.246180725E+02 0.000000000E+00 2.702114258E+02 -1.000000000E+00 -9.990000000E+02 0.000000000E+00 -9.990000000E+02
2.809889913E-01 9.143999815E-01 1.714520529E-02 -3.470195234E-01 4.246181030E+02 0.000000000E+00 2.702114258E+02 -1.000000000E+00 -9.990000000E+02 0.000000000E+00 -9.990000000E+02
2.757712603E-01 9.143999815E-01 1.786375232E-02 -3.568224311E-01 4.293502808E+02 0.000000000E+00 2.702056274E+02 -1.000000000E+00 -9.990000000E+02 0.000000000E+00 -9.990000000E+02
2.757712305E-01 9.143999815E-01 1.786375418E-02 -3.568224311E-01 4.293503113E+02 0.000000000E+00 2.702056274E+02 -1.000000000E+00 -9.990000000E+02 0.000000000E+00 -9.990000000E+02
2.705520391E-01 9.143999815E-01 1.857155561E-02 -3.668173552E-01 4.337140198E+02 0.000000000E+00 2.701996765E+02 -1.000000000E+00 -9.990000000E+02 0.000000000E+00 -9.990000000E+02
2.705520093E-01 9.143999815E-01 1.857155748E-02 -3.668173552E-01 4.337140503E+02 0.000000000E+00 2.701996765E+02 -1.000000000E+00 -9.990000000E+02 0.000000000E+00 -9.990000000E+02
2.653313279E-01 9.143999815E-01 1.926829480E-02 -3.769482076E-01 4.375768433E+02 0.000000000E+00 2.701936646E+02 -1.000000000E+00 -9.990000000E+02 0.000000000E+00 -9.990000000E+02
2.653312981E-01 9.143999815E-01 1.926829666E-02 -3.769482076E-01 4.375768433E+02 0.000000000E+00 2.701936646E+02 -1.000000000E+00 -9.990000000E+02 0.000000000E+00 -9.990000000E+02
2.601090968E-01 9.143999815E-01 1.995361783E-02 -3.871850371E-01 4.414766846E+02 0.000000000E+00 2.701875916E+02 -1.000000000E+00 -9.990000000E+02 0.000000000E+00 -9.990000000E+02
2.601090670E-01 9.143999815E-01 1.995361969E-02 -3.871850371E-01 4.414766846E+02 0.000000000E+00 2.701875916E+02 -1.000000000E+00 -9.990000000E+02 0.000000000E+00 -9.990000000E+02
2.548853457E-01 9.143999815E-01 2.062714845E-02 -3.975228369E-01 4.454379883E+02 0.000000000E+00 2.701814575E+02 -1.000000000E+00 -9.990000000E+02 0.000000000E+00 -9.990000000E+02
2.548853159E-01 9.143999815E-01 2.062715031E-02 -3.975228369E-01 4.454379883E+02 0.000000000E+00 2.701814575E+02 -1.000000000E+00 -9.990000000E+02 0.000000000E+00 -9.990000000E+02
2.496600300E-01 9.143999815E-01 2.128851973E-02 -4.078531861E-01 4.489117432E+02 0.000000000E+00 2.701753235E+02 -1.000000000E+00 -9.990000000E+02 0.000000000E+00 -9.990000000E+02
2.496600151E-01 9.143999815E-01 2.128852159E-02 -4.078531861E-01 4.489117432E+02 0.000000000E+00 2.701753235E+02 -1.000000000E+00 -9.990000000E+02 0.000000000E+00 -9.990000000E+02
2.444331348E-01 9.143999815E-01 2.193731442E-02 -4.181498587E-01 4.513780823E+02 0.000000000E+00 2.701691895E+02 -1.000000000E+00 -9.990000000E+02 0.000000000E+00 -9.990000000E+02
2.444331199E-01 9.143999815E-01 2.193731628E-02 -4.181498587E-01 4.513780823E+02 0.000000000E+00 2.701691895E+02 -1.000000000E+00 -9.990000000E+02 0.000000000E+00 -9.990000000E+02
2.392046452E-01 9.143999815E-01 2.257309854E-02 -4.287021458E-01 4.531852722E+02 0.000000000E+00 2.701629028E+02 -1.000000000E+00 -9.990000000E+02 0.000000000E+00 -9.990000000E+02
2.392046303E-01 9.143999815E-01 2.257310040E-02 -4.287021458E-01 4.531852722E+02 0.000000000E+00 2.701629028E+02 -1.000000000E+00 -9.990000000E+02 0.000000000E+00 -9.990000000E+02
2.339745462E-01 9.143999815E-01 2.319544181E-02 -4.396721125E-01 4.556724854E+02 0.000000000E+00 2.701563721E+02 -1.000000000E+00 -9.990000000E+02 0.000000000E+00 -9.990000000E+02
2.339745313E-01 9.143999815E-01 2.319544367E-02 -4.396721125E-01 4.556724854E+02 0.000000000E+00 2.701563721E+02 -1.000000000E+00 -9.990000000E+02 0.000000000E+00 -9.990000000E+02
2.287428081E-01 9.143999815E-01 2.380388416E-02 -4.508914649E-01 4.597471924E+02 0.000000000E+00 2.701496887E+02 -1.000000000E+00 -9.990000000E+02 0.000000000E+00 -9.990000000E+02
2.287427932E-01 9.143999815E-01 2.380388603E-02 -4.508914649E-01 4.597471924E+02 0.000000000E+00 2.701496887E+02 -1.000000000E+00 -9.990000000E+02 0.000000000E+00 -9.990000000E+02
2.235094160E-01 9.143999815E-01 2.439792641E-02 -4.622604549E-01 4.648978882E+02 0.000000000E+00 2.701429138E+02 -1.000000000E+00 -9.990000000E+02 0.000000000E+00 -9.990000000E+02
2.235094011E-01 9.143999815E-01 2.439792827E-02 -4.622604549E-01 4.648979187E+02 0.000000000E+00 2.701429138E+02 -1.000000000E+00 -9.990000000E+02 0.000000000E+00 -9.990000000E+02
2.182743549E-01 9.143999815E-01 2.497706190E-02 -4.737690985E-01 4.701078796E+02 0.000000000E+00 2.701360474E+02 -1.000000000E+00 -9.990000000E+02 0.000000000E+00 -9.990000000E+02
2.182743400E-01 9.143999815E-01 2.497706376E-02 -4.737690985E-01 4.701079102E+02 0.000000000E+00 2.701360474E+02 -1.000000000E+00 -9.990000000E+02 0.000000000E+00 -9.990000000E+02
2.130376101E-01 9.143999815E-01 2.554076165E-02 -4.853625000E-01 4.747433167E+02 0.000000000E+00 2.701291504E+02 -1.000000000E+00 -9.990000000E+02 0.000000000E+00 -9.990000000E+02
2.130375952E-01 9.143999815E-01 2.554076351E-02 -4.853625000E-01 4.747433472E+02 0.000000000E+00 2.701291504E+02 -1.000000000E+00 -9.990000000E+02 0.000000000E+00 -9.990000000E+02
2.077991515E-01 9.143999815E-01 2.608845010E-02 -4.970344901E-01 4.787819214E+02 0.000000000E+00 2.701221924E+02 -1.000000000E+00 -9.990000000E+02 0.000000000E+00 -9.990000000E+02
2.077991366E-01 9.143999815E-01 2.608845197E-02 -4.970344901E-01 4.787819214E+02 0.000000000E+00 2.701221924E+02 -1.000000000E+00 -9.990000000E+02 0.000000000E+00 -9.990000000E+02
2.025589943E-01 9.143999815E-01 2.661953121E-02 -5.088461041E-01 4.827269592E+02 0.000000000E+00 2.701151123E+02 -1.000000000E+00 -9.990000000E+02 0.000000000E+00 -9.990000000E+02
2.025589794E-01 9.143999815E-01 2.661953308E-02 -5.088461041E-01 4.827269592E+02 0.000000000E+00 2.701151123E+02 -1.000000000E+00 -9.990000000E+02 0.000000000E+00 -9.990000000E+02
1.973171234E-01 9.143999815E-01 2.713337541E-02 -5.208272934E-01 4.870813599E+02 0.000000000E+00 2.701079712E+02 -1.000000000E+00 -9.990000000E+02 0.000000000E+00 -9.990000000E+02
1.973171085E-01 9.143999815E-01 2.713337727E-02 -5.208272934E-01 4.870813904E+02 0.000000000E+00 2.701079712E+02 -1.000000000E+00 -9.990000000E+02 0.000000000E+00 -9.990000000E+02
1.920735240E-01 9.143999815E-01 2.762923390E-02 -5.330341458E-01 4.923009644E+02 0.000000000E+00 2.701006470E+02 -1.000000000E+00 -9.990000000E+02 0.000000000E+00 -9.990000000E+02
1.920735091E-01 9.143999815E-01 2.762923576E-02 -5.330341458E-01 4.923009949E+02 0.000000000E+00 2.701006470E+02 -1.000000000E+00 -9.990000000E+02 0.000000000E+00 -9.990000000E+02
1.868281811E-01 9.143999815E-01 2.810651064E-02 -5.455777049E-01 4.984360352E+02 0.000000000E+00 2.700931396E+02 -1.000000000E+00 -9.990000000E+02 0.000000000E+00 -9.990000000E+02
1.868281662E-01 9.143999815E-01 2.810651250E-02 -5.455777049E-01 4.984360657E+02 0.000000000E+00 2.700931396E+02 -1.000000000E+00 -9.990000000E+02 0.000000000E+00 -9.990000000E+02
1.815811396E-01 9.143999815E-01 2.856452577E-02 -5.584341884E-01 5.048245544E+02 0.000000000E+00 2.700854492E+02 -1.000000000E+00 -9.990000000E+02 0.000000000E+00 -9.990000000E+02
1.815811247E-01 9.143999815E-01 2.856452763E-02 -5.584341884E-01 5.048245850E+02 0.000000000E+00 2.700854492E+02 -1.000000000E+00 -9.990000000E+02 0.000000000E+00 -9.990000000E+02
1.763323694E-01 9.143999815E-01 2.900232002E-02 -5.714827180E-01 5.109555359E+02 0.000000000E+00 2.700776367E+02 -1.000000000E+00 -9.990000000E+02 0.000000000E+00 -9.990000000E+02
1.763323545E-01 9.143999815E-01 2.900232188E-02 -5.714827180E-01 5.109555664E+02 0.000000000E+00 2.700776367E+02 -1.000000000E+00 -9.990000000E+02 0.000000000E+00 -9.990000000E+02
1.710818857E-01 9.143999815E-01 2.941915579E-02 -5.847207904E-01 5.164566650E+02 0.000000000E+00 2.700697021E+02 -1.000000000E+00 -9.990000000E+02 0.000000000E+00 -9.990000000E+02
1.710818708E-01 9.143999815E-01 2.941915765E-02 -5.847207904E-01 5.164566650E+02 0.000000000E+00 2.700697021E+02 -1.000000000E+00 -9.990000000E+02 0.000000000E+00 -9.990000000E+02
1.658297330E-01 9.143999815E-01 2.981428243E-02 -5.982106924E-01 5.210536499E+02 0.000000000E+00 2.700615845E+02 -1.000000000E+00 -9.990000000E+02 0.000000000E+00 -9.990000000E+02
1.658297181E-01 9.143999815E-01 2.981428429E-02 -5.982106924E-01 5.210536499E+02 0.000000000E+00 2.700615845E+02 -1.000000000E+00 -9.990000000E+02 0.000000000E+00 -9.990000000E+02
1.605758965E-01 9.143999815E-01 3.018648550E-02 -6.119649410E-01 5.256283569E+02 0.000000000E+00 2.700533447E+02 -1.000000000E+00 -9.990000000E+02 0.000000000E+00 -9.990000000E+02
1.605758816E-01 9.143999815E-01 3.018648736E-02 -6.119649410E-01 5.256283569E+02 0.000000000E+00 2.700533447E+02 -1.000000000E+00 -9.990000000E+02 0.000000000E+00 -9.990000000E+02
1.553204507E-01 9.143999815E-01 3.053510375E-02 -6.260733008E-01 5.308035889E+02 0.000000000E+00 2.700448608E+02 -1.000000000E+00 -9.990000000E+02 0.000000000E+00 -9.990000000E+02
1.553204358E-01 9.143999815E-01 3.053510562E-02 -6.260733008E-01 5.308035889E+02 0.000000000E+00 2.700448608E+02 -1.000000000E+00 -9.990000000E+02 0.000000000E+00 -9.990000000E+02
1.500633955E-01 9.143999815E-01 3.085875697E-02 -6.408100724E-01 5.356904297E+02 0.000000000E+00 2.700360107E+02 -1.000000000E+00 -9.990000000E+02 0.000000000E+00 -9.990000000E+02
1.500633806E-01 9.143999815E-01 3.085875884E-02 -6.408100724E-01 5.356904297E+02 0.000000000E+00 2.700360107E+02 -1.000000000E+00 -9.990000000E+02 0.000000000E+00 -9.990000000E+02
1.448048204E-01 9.143999815E-01 3.115655296E-02 -6.560268998E-01 5.400525513E+02 0.000000000E+00 2.700268555E+02 -1.000000000E+00 -9.990000000E+02 0.000000000E+00 -9.990000000E+02
1.448048055E-01 9.143999815E-01 3.115655482E-02 -6.560268998E-01 5.400525513E+02 0.000000000E+00 2.700268555E+02 -1.000000000E+00 -9.990000000E+02 0.000000000E+00 -9.990000000E+02