#++++++++++++++++++++++++++++++++++++++++++++++++++++++++++++++++++++++++++++++++++++++++++++++++++++++++++++++++++++
#
#   IPW-3 Ice Shape DATA SUBMITTAL FORM for Test Case NACA0012_AE3932, May 18th 2026
#
#       NOMENCLATURE:
#             X_ICED [m]:  X-coordinate of the iced surface
#             Y_ICED [m]:  Y-coordinate of the iced surface
#             Z_ICED [m]:  Z-coordinate of the iced surface
#
#                XXmm:  Roughness height used for the case, in mm.
#                       In the zone name, use the format KS_XXmm.
#                       For example, if k_s = 1.5 mm, use KS_1p5mm. 
#                       For Variable roughness, use KS_VAR
#
#    FLOW CONDITIONS:
#                                   AOA: 4.0 deg
#                           Mach Number: 0.3151 [-]
#       Mean aerodynamic chord (M.A.C.): 0.5334 [m]
#                       Reynolds Number: 3.9795 million (based on MAC)
#                       Freestream Temp: 267.55 [K]
#                        Reference area: 0.97548 [m2]
#               Moment Reference Center: 0.13335, 0, 0 [m] (X, Y, Z)
#
#    ICING CONDITIONS:
#                           Icing Time: 420 [s]
#                                  LWC: 0.55 [g/m3]
#                                  MVD: 20 [μm]
#
#              NOTES: 1. Please use at least 5 decimal places in the numerical values
#                     2. If data are NOT provided, please fill data fields with a numerical value of "-999" 
#
#++++++++++++++++++++++++++++++++++++++++++++++++++++++++++++++++++++++++++++++++++++++++++++++++++++++++++++++++++++

VARIABLES = "X_ICED" "Y_ICED" "Z_ICED"
ZONE T="SLICE_Y_0p9144_BINS01_KS_0p5334mm_SINGLE_LAYER"
0.53243 0.91440 -0.02791 
0.53242 0.91440 -0.02802 
0.53241 0.91440 -0.02813 
0.53240 0.91440 -0.02824 
0.53239 0.91440 -0.02835 
0.53239 0.91440 -0.02846 
0.53238 0.91440 -0.02858 
0.53202 0.91440 -0.02860 
0.53144 0.91440 -0.02864 
0.53052 0.91440 -0.02871 
0.52905 0.91440 -0.02881 
0.52669 0.91440 -0.02897 
0.52292 0.91440 -0.02922 
0.51916 0.91440 -0.02947 
0.51540 0.91440 -0.02972 
0.51164 0.91440 -0.02996 
0.50788 0.91440 -0.03019 
0.50412 0.91440 -0.03042 
0.50036 0.91440 -0.03065 
0.49660 0.91440 -0.03088 
0.49284 0.91440 -0.03110 
0.48907 0.91440 -0.03131 
0.48531 0.91440 -0.03152 
0.48155 0.91440 -0.03173 
0.47779 0.91440 -0.03194 
0.47403 0.91440 -0.03214 
0.47027 0.91440 -0.03233 
0.46650 0.91440 -0.03253 
0.46274 0.91440 -0.03272 
0.45898 0.91440 -0.03290 
0.45521 0.91440 -0.03309 
0.45145 0.91440 -0.03327 
0.44769 0.91440 -0.03344 
0.44392 0.91440 -0.03361 
0.44016 0.91440 -0.03378 
0.43640 0.91440 -0.03395 
0.43263 0.91440 -0.03411 
0.42887 0.91440 -0.03426 
0.42510 0.91440 -0.03442 
0.42134 0.91440 -0.03457 
0.41758 0.91440 -0.03472 
0.41381 0.91440 -0.03486 
0.41005 0.91440 -0.03500 
0.40628 0.91440 -0.03514 
0.40252 0.91440 -0.03527 
0.39875 0.91440 -0.03540 
0.39499 0.91440 -0.03553 
0.39122 0.91440 -0.03565 
0.38746 0.91440 -0.03577 
0.38369 0.91440 -0.03589 
0.37992 0.91440 -0.03600 
0.37616 0.91440 -0.03611 
0.37239 0.91440 -0.03621 
0.36863 0.91440 -0.03631 
0.36486 0.91440 -0.03641 
0.36109 0.91440 -0.03651 
0.35733 0.91440 -0.03660 
0.35356 0.91440 -0.03668 
0.34979 0.91440 -0.03677 
0.34603 0.91440 -0.03684 
0.34226 0.91440 -0.03692 
0.33849 0.91440 -0.03699 
0.33473 0.91440 -0.03706 
0.33096 0.91440 -0.03712 
0.32719 0.91440 -0.03718 
0.32343 0.91440 -0.03723 
0.31966 0.91440 -0.03728 
0.31589 0.91440 -0.03733 
0.31213 0.91440 -0.03737 
0.30836 0.91440 -0.03741 
0.30459 0.91440 -0.03744 
0.30082 0.91440 -0.03747 
0.29706 0.91440 -0.03749 
0.29329 0.91440 -0.03751 
0.28952 0.91440 -0.03752 
0.28575 0.91440 -0.03753 
0.28199 0.91440 -0.03753 
0.27822 0.91440 -0.03753 
0.27445 0.91440 -0.03752 
0.27068 0.91440 -0.03751 
0.26692 0.91440 -0.03749 
0.26315 0.91440 -0.03746 
0.25938 0.91440 -0.03743 
0.25562 0.91440 -0.03740 
0.25185 0.91440 -0.03735 
0.24808 0.91440 -0.03730 
0.24431 0.91440 -0.03725 
0.24055 0.91440 -0.03719 
0.23678 0.91440 -0.03712 
0.23301 0.91440 -0.03704 
0.22925 0.91440 -0.03696 
0.22548 0.91440 -0.03687 
0.22172 0.91440 -0.03678 
0.21795 0.91440 -0.03667 
0.21418 0.91440 -0.03656 
0.21042 0.91440 -0.03644 
0.20665 0.91440 -0.03631 
0.20289 0.91440 -0.03618 
0.19912 0.91440 -0.03603 
0.19536 0.91440 -0.03588 
0.19160 0.91440 -0.03571 
0.18783 0.91440 -0.03554 
0.18407 0.91440 -0.03536 
0.18031 0.91440 -0.03517 
0.17654 0.91440 -0.03497 
0.17278 0.91440 -0.03475 
0.16902 0.91440 -0.03453 
0.16526 0.91440 -0.03430 
0.16150 0.91440 -0.03405 
0.15774 0.91440 -0.03380 
0.15399 0.91440 -0.03353 
0.15023 0.91440 -0.03325 
0.14647 0.91440 -0.03295 
0.14272 0.91440 -0.03265 
0.13896 0.91440 -0.03233 
0.13521 0.91440 -0.03199 
0.13146 0.91440 -0.03164 
0.12771 0.91440 -0.03128 
0.12396 0.91440 -0.03090 
0.12034 0.91440 -0.03052 
0.11690 0.91440 -0.03014 
0.11362 0.91440 -0.02977 
0.11049 0.91440 -0.02940 
0.10752 0.91440 -0.02904 
0.10469 0.91440 -0.02868 
0.10200 0.91440 -0.02833 
0.09943 0.91440 -0.02799 
0.09699 0.91440 -0.02765 
0.09467 0.91440 -0.02732 
0.09246 0.91440 -0.02700 
0.09035 0.91440 -0.02669 
0.08835 0.91440 -0.02638 
0.08644 0.91440 -0.02609 
0.08454 0.91440 -0.02578 
0.08263 0.91440 -0.02548 
0.08073 0.91440 -0.02516 
0.07883 0.91440 -0.02484 
0.07693 0.91440 -0.02451 
0.07503 0.91440 -0.02417 
0.07313 0.91440 -0.02383 
0.07123 0.91440 -0.02347 
0.06934 0.91440 -0.02311 
0.06744 0.91440 -0.02275 
0.06555 0.91440 -0.02237 
0.06364 0.91440 -0.02206 
0.06171 0.91440 -0.02186 
0.05979 0.91440 -0.02161 
0.05788 0.91440 -0.02131 
0.05593 0.91440 -0.02116 
0.05396 0.91440 -0.02110 
0.05203 0.91440 -0.02087 
0.05014 0.91440 -0.02041 
0.04828 0.91440 -0.01989 
0.04636 0.91440 -0.01954 
0.04439 0.91440 -0.01940 
0.04242 0.91440 -0.01924 
0.04049 0.91440 -0.01890 
0.03858 0.91440 -0.01852 
0.03663 0.91440 -0.01821 
0.03469 0.91440 -0.01787 
0.03274 0.91440 -0.01754 
0.03075 0.91440 -0.01729 
0.02875 0.91440 -0.01703 
0.02680 0.91440 -0.01662 
0.02461 0.91440 -0.01681 
0.02178 0.91440 -0.01856 
0.01919 0.91440 -0.01948 
0.01725 0.91440 -0.01870 
0.01530 0.91440 -0.01788 
0.01335 0.91440 -0.01704 
0.01138 0.91440 -0.01615 
0.00942 0.91440 -0.01519 
0.00748 0.91440 -0.01410 
0.00557 0.91440 -0.01287 
0.00367 0.91440 -0.01151 
0.00181 0.91440 -0.00999 
0.00003 0.91440 -0.00828 
-0.00148 0.91440 -0.00649 
-0.00280 0.91440 -0.00469 
-0.00331 0.91440 -0.00243 
-0.00354 0.91440 -0.00025 
-0.00526 0.91440 0.00090 
-0.00778 0.91440 0.00190 
-0.01009 0.91440 0.00338 
-0.01225 0.91440 0.00531 
-0.01377 0.91440 0.00768 
-0.01421 0.91440 0.00946 
-0.01669 0.91440 0.01347 
-0.01689 0.91440 0.01662 
-0.01675 0.91440 0.01987 
-0.01598 0.91440 0.02300 
-0.01463 0.91440 0.02586 
-0.00931 0.91440 0.02536 
-0.00232 0.91440 0.02204 
0.00159 0.91440 0.02060 
0.00413 0.91440 0.02036 
0.00650 0.91440 0.02021 
0.00877 0.91440 0.02021 
0.01073 0.91440 0.02064 
0.01249 0.91440 0.02141 
0.01426 0.91440 0.02215 
0.01605 0.91440 0.02284 
0.01786 0.91440 0.02348 
0.01969 0.91440 0.02407 
0.02153 0.91440 0.02462 
0.02338 0.91440 0.02514 
0.02523 0.91440 0.02563 
0.02710 0.91440 0.02609 
0.02897 0.91440 0.02652 
0.03085 0.91440 0.02692 
0.03273 0.91440 0.02730 
0.03461 0.91440 0.02767 
0.03650 0.91440 0.02801 
0.03840 0.91440 0.02833 
0.04029 0.91440 0.02863 
0.04219 0.91440 0.02892 
0.04409 0.91440 0.02919 
0.04599 0.91440 0.02944 
0.04790 0.91440 0.02969 
0.04980 0.91440 0.02991 
0.05171 0.91440 0.03013 
0.05362 0.91440 0.03033 
0.05553 0.91440 0.03052 
0.05744 0.91440 0.03070 
0.05936 0.91440 0.03087 
0.06127 0.91440 0.03103 
0.06318 0.91440 0.03118 
0.06510 0.91440 0.03132 
0.06701 0.91440 0.03144 
0.06893 0.91440 0.03156 
0.07085 0.91440 0.03167 
0.07276 0.91440 0.03178 
0.07468 0.91440 0.03187 
0.07660 0.91440 0.03196 
0.07852 0.91440 0.03204 
0.08044 0.91440 0.03211 
0.08235 0.91440 0.03217 
0.08427 0.91440 0.03223 
0.08619 0.91440 0.03228 
0.08811 0.91440 0.03232 
0.09003 0.91440 0.03235 
0.09189 0.91440 0.03238 
0.09383 0.91440 0.03241 
0.09588 0.91440 0.03242 
0.09802 0.91440 0.03244 
0.10028 0.91440 0.03244 
0.10264 0.91440 0.03244 
0.10513 0.91440 0.03243 
0.10774 0.91440 0.03240 
0.11048 0.91440 0.03237 
0.11335 0.91440 0.03232 
0.11637 0.91440 0.03226 
0.11954 0.91440 0.03218 
0.12287 0.91440 0.03209 
0.12636 0.91440 0.03198 
0.13003 0.91440 0.03184 
0.13382 0.91440 0.03169 
0.13760 0.91440 0.03152 
0.14138 0.91440 0.03134 
0.14517 0.91440 0.03114 
0.14895 0.91440 0.03092 
0.15273 0.91440 0.03070 
0.15651 0.91440 0.03046 
0.16029 0.91440 0.03021 
0.16406 0.91440 0.02994 
0.16784 0.91440 0.02967 
0.17162 0.91440 0.02938 
0.17539 0.91440 0.02908 
0.17917 0.91440 0.02877 
0.18294 0.91440 0.02845 
0.18671 0.91440 0.02812 
0.19049 0.91440 0.02778 
0.19426 0.91440 0.02742 
0.19803 0.91440 0.02706 
0.20180 0.91440 0.02670 
0.20557 0.91440 0.02632 
0.20933 0.91440 0.02593 
0.21310 0.91440 0.02553 
0.21686 0.91440 0.02513 
0.22063 0.91440 0.02472 
0.22439 0.91440 0.02430 
0.22816 0.91440 0.02387 
0.23192 0.91440 0.02344 
0.23568 0.91440 0.02299 
0.23944 0.91440 0.02254 
0.24320 0.91440 0.02209 
0.24696 0.91440 0.02163 
0.25072 0.91440 0.02116 
0.25447 0.91440 0.02068 
0.25823 0.91440 0.02020 
0.26199 0.91440 0.01971 
0.26574 0.91440 0.01921 
0.26950 0.91440 0.01871 
0.27325 0.91440 0.01821 
0.27700 0.91440 0.01770 
0.28075 0.91440 0.01718 
0.28450 0.91440 0.01666 
0.28825 0.91440 0.01613 
0.29200 0.91440 0.01559 
0.29575 0.91440 0.01506 
0.29950 0.91440 0.01451 
0.30325 0.91440 0.01396 
0.30699 0.91440 0.01341 
0.31074 0.91440 0.01285 
0.31449 0.91440 0.01229 
0.31823 0.91440 0.01172 
0.32197 0.91440 0.01115 
0.32572 0.91440 0.01058 
0.32946 0.91440 0.01000 
0.33320 0.91440 0.00941 
0.33694 0.91440 0.00882 
0.34068 0.91440 0.00823 
0.34442 0.91440 0.00764 
0.34816 0.91440 0.00704 
0.35190 0.91440 0.00643 
0.35564 0.91440 0.00582 
0.35938 0.91440 0.00521 
0.36311 0.91440 0.00459 
0.36685 0.91440 0.00397 
0.37059 0.91440 0.00335 
0.37432 0.91440 0.00272 
0.37806 0.91440 0.00209 
0.38179 0.91440 0.00146 
0.38552 0.91440 0.00082 
0.38926 0.91440 0.00018 
0.39299 0.91440 -0.00047 
0.39672 0.91440 -0.00111 
0.40045 0.91440 -0.00177 
0.40418 0.91440 -0.00242 
0.40791 0.91440 -0.00308 
0.41164 0.91440 -0.00374 
0.41537 0.91440 -0.00441 
0.41909 0.91440 -0.00508 
0.42282 0.91440 -0.00575 
0.42655 0.91440 -0.00643 
0.43027 0.91440 -0.00711 
0.43400 0.91440 -0.00779 
0.43772 0.91440 -0.00848 
0.44145 0.91440 -0.00917 
0.44517 0.91440 -0.00986 
0.44889 0.91440 -0.01056 
0.45261 0.91440 -0.01126 
0.45634 0.91440 -0.01196 
0.46006 0.91440 -0.01267 
0.46378 0.91440 -0.01338 
0.46749 0.91440 -0.01410 
0.47121 0.91440 -0.01482 
0.47493 0.91440 -0.01554 
0.47865 0.91440 -0.01627 
0.48236 0.91440 -0.01699 
0.48608 0.91440 -0.01773 
0.48979 0.91440 -0.01847 
0.49351 0.91440 -0.01921 
0.49722 0.91440 -0.01995 
0.50093 0.91440 -0.02070 
0.50465 0.91440 -0.02145 
0.50836 0.91440 -0.02221 
0.51207 0.91440 -0.02297 
0.51578 0.91440 -0.02374 
0.51948 0.91440 -0.02451 
0.52319 0.91440 -0.02528 
0.52689 0.91440 -0.02606 
0.52921 0.91440 -0.02654 
0.53065 0.91440 -0.02685 
0.53156 0.91440 -0.02704 
0.53212 0.91440 -0.02716 
0.53247 0.91440 -0.02724 
0.53246 0.91440 -0.02735 
0.53246 0.91440 -0.02746 
0.53245 0.91440 -0.02757 
0.53244 0.91440 -0.02768 
0.53243 0.91440 -0.02779 
0.53243 0.91440 -0.02791 

VARIABLES = "X_ICED" "Y_ICED" "Z_ICED"
ZONE T="SLICE_Y_0p9144_BINS03_KS_0p5334mm_SINGLE_LAYER"
0.53243 0.91440 -0.02791 
0.53242 0.91440 -0.02802 
0.53241 0.91440 -0.02813 
0.53240 0.91440 -0.02824 
0.53239 0.91440 -0.02835 
0.53239 0.91440 -0.02846 
0.53238 0.91440 -0.02858 
0.53202 0.91440 -0.02860 
0.53144 0.91440 -0.02864 
0.53052 0.91440 -0.02871 
0.52905 0.91440 -0.02881 
0.52669 0.91440 -0.02897 
0.52292 0.91440 -0.02922 
0.51916 0.91440 -0.02947 
0.51540 0.91440 -0.02972 
0.51164 0.91440 -0.02996 
0.50788 0.91440 -0.03019 
0.50412 0.91440 -0.03042 
0.50036 0.91440 -0.03065 
0.49660 0.91440 -0.03088 
0.49284 0.91440 -0.03110 
0.48907 0.91440 -0.03131 
0.48531 0.91440 -0.03152 
0.48155 0.91440 -0.03173 
0.47779 0.91440 -0.03194 
0.47403 0.91440 -0.03214 
0.47027 0.91440 -0.03233 
0.46650 0.91440 -0.03253 
0.46274 0.91440 -0.03272 
0.45898 0.91440 -0.03290 
0.45521 0.91440 -0.03309 
0.45145 0.91440 -0.03327 
0.44769 0.91440 -0.03344 
0.44392 0.91440 -0.03361 
0.44016 0.91440 -0.03378 
0.43640 0.91440 -0.03395 
0.43263 0.91440 -0.03411 
0.42887 0.91440 -0.03426 
0.42510 0.91440 -0.03442 
0.42134 0.91440 -0.03457 
0.41758 0.91440 -0.03472 
0.41381 0.91440 -0.03486 
0.41005 0.91440 -0.03500 
0.40628 0.91440 -0.03514 
0.40252 0.91440 -0.03527 
0.39875 0.91440 -0.03540 
0.39499 0.91440 -0.03553 
0.39122 0.91440 -0.03565 
0.38746 0.91440 -0.03577 
0.38369 0.91440 -0.03589 
0.37992 0.91440 -0.03600 
0.37616 0.91440 -0.03611 
0.37239 0.91440 -0.03621 
0.36863 0.91440 -0.03631 
0.36486 0.91440 -0.03641 
0.36109 0.91440 -0.03651 
0.35733 0.91440 -0.03660 
0.35356 0.91440 -0.03668 
0.34979 0.91440 -0.03677 
0.34603 0.91440 -0.03684 
0.34226 0.91440 -0.03692 
0.33849 0.91440 -0.03699 
0.33473 0.91440 -0.03706 
0.33096 0.91440 -0.03712 
0.32719 0.91440 -0.03718 
0.32343 0.91440 -0.03723 
0.31966 0.91440 -0.03728 
0.31589 0.91440 -0.03733 
0.31213 0.91440 -0.03737 
0.30836 0.91440 -0.03741 
0.30459 0.91440 -0.03744 
0.30082 0.91440 -0.03747 
0.29706 0.91440 -0.03749 
0.29329 0.91440 -0.03751 
0.28952 0.91440 -0.03752 
0.28575 0.91440 -0.03753 
0.28199 0.91440 -0.03753 
0.27822 0.91440 -0.03753 
0.27445 0.91440 -0.03752 
0.27068 0.91440 -0.03751 
0.26692 0.91440 -0.03749 
0.26315 0.91440 -0.03746 
0.25938 0.91440 -0.03743 
0.25562 0.91440 -0.03740 
0.25185 0.91440 -0.03735 
0.24808 0.91440 -0.03730 
0.24431 0.91440 -0.03725 
0.24055 0.91440 -0.03719 
0.23678 0.91440 -0.03712 
0.23301 0.91440 -0.03704 
0.22925 0.91440 -0.03696 
0.22548 0.91440 -0.03687 
0.22172 0.91440 -0.03678 
0.21795 0.91440 -0.03667 
0.21418 0.91440 -0.03656 
0.21042 0.91440 -0.03644 
0.20665 0.91440 -0.03631 
0.20289 0.91440 -0.03618 
0.19912 0.91440 -0.03603 
0.19536 0.91440 -0.03588 
0.19160 0.91440 -0.03571 
0.18783 0.91440 -0.03554 
0.18407 0.91440 -0.03536 
0.18031 0.91440 -0.03517 
0.17654 0.91440 -0.03497 
0.17278 0.91440 -0.03475 
0.16902 0.91440 -0.03453 
0.16526 0.91440 -0.03430 
0.16150 0.91440 -0.03405 
0.15774 0.91440 -0.03380 
0.15399 0.91440 -0.03353 
0.15023 0.91440 -0.03325 
0.14647 0.91440 -0.03298 
0.14271 0.91440 -0.03272 
0.13895 0.91440 -0.03245 
0.13520 0.91440 -0.03212 
0.13145 0.91440 -0.03176 
0.12770 0.91440 -0.03142 
0.12394 0.91440 -0.03109 
0.12032 0.91440 -0.03076 
0.11687 0.91440 -0.03042 
0.11358 0.91440 -0.03007 
0.11045 0.91440 -0.02973 
0.10748 0.91440 -0.02939 
0.10464 0.91440 -0.02906 
0.10194 0.91440 -0.02873 
0.09938 0.91440 -0.02841 
0.09693 0.91440 -0.02810 
0.09460 0.91440 -0.02780 
0.09238 0.91440 -0.02751 
0.09027 0.91440 -0.02722 
0.08826 0.91440 -0.02693 
0.08635 0.91440 -0.02666 
0.08444 0.91440 -0.02638 
0.08253 0.91440 -0.02611 
0.08061 0.91440 -0.02584 
0.07871 0.91440 -0.02553 
0.07680 0.91440 -0.02519 
0.07490 0.91440 -0.02488 
0.07299 0.91440 -0.02457 
0.07108 0.91440 -0.02426 
0.06917 0.91440 -0.02396 
0.06727 0.91440 -0.02363 
0.06537 0.91440 -0.02327 
0.06347 0.91440 -0.02290 
0.06157 0.91440 -0.02254 
0.05967 0.91440 -0.02219 
0.05777 0.91440 -0.02182 
0.05588 0.91440 -0.02141 
0.05398 0.91440 -0.02102 
0.05207 0.91440 -0.02070 
0.05013 0.91440 -0.02046 
0.04819 0.91440 -0.02023 
0.04626 0.91440 -0.01994 
0.04434 0.91440 -0.01958 
0.04243 0.91440 -0.01921 
0.04050 0.91440 -0.01889 
0.03856 0.91440 -0.01858 
0.03662 0.91440 -0.01825 
0.03469 0.91440 -0.01787 
0.03277 0.91440 -0.01744 
0.03084 0.91440 -0.01702 
0.02888 0.91440 -0.01666 
0.02690 0.91440 -0.01635 
0.02493 0.91440 -0.01595 
0.02301 0.91440 -0.01539 
0.02065 0.91440 -0.01588 
0.01777 0.91440 -0.01747 
0.01533 0.91440 -0.01783 
0.01338 0.91440 -0.01697 
0.01143 0.91440 -0.01605 
0.00949 0.91440 -0.01505 
0.00756 0.91440 -0.01395 
0.00564 0.91440 -0.01275 
0.00374 0.91440 -0.01141 
0.00188 0.91440 -0.00990 
0.00011 0.91440 -0.00819 
-0.00139 0.91440 -0.00639 
-0.00271 0.91440 -0.00461 
-0.00323 0.91440 -0.00237 
-0.00347 0.91440 -0.00021 
-0.00520 0.91440 0.00093 
-0.00770 0.91440 0.00193 
-0.00996 0.91440 0.00342 
-0.01211 0.91440 0.00533 
-0.01367 0.91440 0.00769 
-0.01414 0.91440 0.00946 
-0.01662 0.91440 0.01346 
-0.01674 0.91440 0.01657 
-0.01654 0.91440 0.01978 
-0.01580 0.91440 0.02290 
-0.01288 0.91440 0.02462 
-0.00634 0.91440 0.02282 
-0.00105 0.91440 0.02074 
0.00153 0.91440 0.02067 
0.00399 0.91440 0.02055 
0.00616 0.91440 0.02074 
0.00819 0.91440 0.02125 
0.01013 0.91440 0.02187 
0.01202 0.91440 0.02248 
0.01391 0.91440 0.02303 
0.01580 0.91440 0.02353 
0.01768 0.91440 0.02401 
0.01956 0.91440 0.02448 
0.02145 0.91440 0.02489 
0.02335 0.91440 0.02523 
0.02523 0.91440 0.02563 
0.02710 0.91440 0.02609 
0.02897 0.91440 0.02652 
0.03085 0.91440 0.02692 
0.03273 0.91440 0.02730 
0.03461 0.91440 0.02767 
0.03650 0.91440 0.02801 
0.03840 0.91440 0.02833 
0.04029 0.91440 0.02863 
0.04219 0.91440 0.02892 
0.04409 0.91440 0.02919 
0.04599 0.91440 0.02944 
0.04790 0.91440 0.02969 
0.04980 0.91440 0.02991 
0.05171 0.91440 0.03013 
0.05362 0.91440 0.03033 
0.05553 0.91440 0.03052 
0.05744 0.91440 0.03070 
0.05936 0.91440 0.03087 
0.06127 0.91440 0.03103 
0.06318 0.91440 0.03118 
0.06510 0.91440 0.03132 
0.06701 0.91440 0.03144 
0.06893 0.91440 0.03156 
0.07085 0.91440 0.03167 
0.07276 0.91440 0.03178 
0.07468 0.91440 0.03187 
0.07660 0.91440 0.03196 
0.07852 0.91440 0.03204 
0.08044 0.91440 0.03211 
0.08235 0.91440 0.03217 
0.08427 0.91440 0.03223 
0.08619 0.91440 0.03228 
0.08811 0.91440 0.03232 
0.09003 0.91440 0.03235 
0.09189 0.91440 0.03238 
0.09383 0.91440 0.03241 
0.09588 0.91440 0.03242 
0.09802 0.91440 0.03244 
0.10028 0.91440 0.03244 
0.10264 0.91440 0.03244 
0.10513 0.91440 0.03243 
0.10774 0.91440 0.03240 
0.11048 0.91440 0.03237 
0.11335 0.91440 0.03232 
0.11637 0.91440 0.03226 
0.11954 0.91440 0.03218 
0.12287 0.91440 0.03209 
0.12636 0.91440 0.03198 
0.13003 0.91440 0.03184 
0.13382 0.91440 0.03169 
0.13760 0.91440 0.03152 
0.14138 0.91440 0.03134 
0.14517 0.91440 0.03114 
0.14895 0.91440 0.03092 
0.15273 0.91440 0.03070 
0.15651 0.91440 0.03046 
0.16029 0.91440 0.03021 
0.16406 0.91440 0.02994 
0.16784 0.91440 0.02967 
0.17162 0.91440 0.02938 
0.17539 0.91440 0.02908 
0.17917 0.91440 0.02877 
0.18294 0.91440 0.02845 
0.18671 0.91440 0.02812 
0.19049 0.91440 0.02778 
0.19426 0.91440 0.02742 
0.19803 0.91440 0.02706 
0.20180 0.91440 0.02670 
0.20557 0.91440 0.02632 
0.20933 0.91440 0.02593 
0.21310 0.91440 0.02553 
0.21686 0.91440 0.02513 
0.22063 0.91440 0.02472 
0.22439 0.91440 0.02430 
0.22816 0.91440 0.02387 
0.23192 0.91440 0.02344 
0.23568 0.91440 0.02299 
0.23944 0.91440 0.02254 
0.24320 0.91440 0.02209 
0.24696 0.91440 0.02163 
0.25072 0.91440 0.02116 
0.25447 0.91440 0.02068 
0.25823 0.91440 0.02020 
0.26199 0.91440 0.01971 
0.26574 0.91440 0.01921 
0.26950 0.91440 0.01871 
0.27325 0.91440 0.01821 
0.27700 0.91440 0.01770 
0.28075 0.91440 0.01718 
0.28450 0.91440 0.01666 
0.28825 0.91440 0.01613 
0.29200 0.91440 0.01559 
0.29575 0.91440 0.01506 
0.29950 0.91440 0.01451 
0.30325 0.91440 0.01396 
0.30699 0.91440 0.01341 
0.31074 0.91440 0.01285 
0.31449 0.91440 0.01229 
0.31823 0.91440 0.01172 
0.32197 0.91440 0.01115 
0.32572 0.91440 0.01058 
0.32946 0.91440 0.01000 
0.33320 0.91440 0.00941 
0.33694 0.91440 0.00882 
0.34068 0.91440 0.00823 
0.34442 0.91440 0.00764 
0.34816 0.91440 0.00704 
0.35190 0.91440 0.00643 
0.35564 0.91440 0.00582 
0.35938 0.91440 0.00521 
0.36311 0.91440 0.00459 
0.36685 0.91440 0.00397 
0.37059 0.91440 0.00335 
0.37432 0.91440 0.00272 
0.37806 0.91440 0.00209 
0.38179 0.91440 0.00146 
0.38552 0.91440 0.00082 
0.38926 0.91440 0.00018 
0.39299 0.91440 -0.00047 
0.39672 0.91440 -0.00111 
0.40045 0.91440 -0.00177 
0.40418 0.91440 -0.00242 
0.40791 0.91440 -0.00308 
0.41164 0.91440 -0.00374 
0.41537 0.91440 -0.00441 
0.41909 0.91440 -0.00508 
0.42282 0.91440 -0.00575 
0.42655 0.91440 -0.00643 
0.43027 0.91440 -0.00711 
0.43400 0.91440 -0.00779 
0.43772 0.91440 -0.00848 
0.44145 0.91440 -0.00917 
0.44517 0.91440 -0.00986 
0.44889 0.91440 -0.01056 
0.45261 0.91440 -0.01126 
0.45634 0.91440 -0.01196 
0.46006 0.91440 -0.01267 
0.46378 0.91440 -0.01338 
0.46749 0.91440 -0.01410 
0.47121 0.91440 -0.01482 
0.47493 0.91440 -0.01554 
0.47865 0.91440 -0.01627 
0.48236 0.91440 -0.01699 
0.48608 0.91440 -0.01773 
0.48979 0.91440 -0.01847 
0.49351 0.91440 -0.01921 
0.49722 0.91440 -0.01995 
0.50093 0.91440 -0.02070 
0.50465 0.91440 -0.02145 
0.50836 0.91440 -0.02221 
0.51207 0.91440 -0.02297 
0.51578 0.91440 -0.02374 
0.51948 0.91440 -0.02451 
0.52319 0.91440 -0.02528 
0.52689 0.91440 -0.02606 
0.52921 0.91440 -0.02654 
0.53065 0.91440 -0.02685 
0.53156 0.91440 -0.02704 
0.53212 0.91440 -0.02716 
0.53247 0.91440 -0.02724 
0.53246 0.91440 -0.02735 
0.53246 0.91440 -0.02746 
0.53245 0.91440 -0.02757 
0.53244 0.91440 -0.02768 
0.53243 0.91440 -0.02779 
0.53243 0.91440 -0.02791 

VARIABLES = "X_ICED" "Y_ICED" "Z_ICED"
ZONE T="SLICE_Y_0p9144_BINS07_KS_0p5334mm_SINGLE_LAYER"
0.53243 0.91440 -0.02791 
0.53242 0.91440 -0.02802 
0.53241 0.91440 -0.02813 
0.53240 0.91440 -0.02824 
0.53239 0.91440 -0.02835 
0.53239 0.91440 -0.02846 
0.53238 0.91440 -0.02858 
0.53202 0.91440 -0.02860 
0.53144 0.91440 -0.02864 
0.53052 0.91440 -0.02871 
0.52905 0.91440 -0.02881 
0.52669 0.91440 -0.02897 
0.52292 0.91440 -0.02922 
0.51916 0.91440 -0.02947 
0.51540 0.91440 -0.02972 
0.51164 0.91440 -0.02996 
0.50788 0.91440 -0.03019 
0.50412 0.91440 -0.03042 
0.50036 0.91440 -0.03065 
0.49660 0.91440 -0.03088 
0.49284 0.91440 -0.03110 
0.48907 0.91440 -0.03131 
0.48531 0.91440 -0.03152 
0.48155 0.91440 -0.03173 
0.47779 0.91440 -0.03194 
0.47403 0.91440 -0.03214 
0.47027 0.91440 -0.03233 
0.46650 0.91440 -0.03253 
0.46274 0.91440 -0.03272 
0.45898 0.91440 -0.03290 
0.45521 0.91440 -0.03309 
0.45145 0.91440 -0.03327 
0.44769 0.91440 -0.03344 
0.44392 0.91440 -0.03361 
0.44016 0.91440 -0.03378 
0.43640 0.91440 -0.03395 
0.43263 0.91440 -0.03411 
0.42887 0.91440 -0.03426 
0.42510 0.91440 -0.03442 
0.42134 0.91440 -0.03457 
0.41758 0.91440 -0.03472 
0.41381 0.91440 -0.03486 
0.41005 0.91440 -0.03500 
0.40628 0.91440 -0.03514 
0.40252 0.91440 -0.03527 
0.39875 0.91440 -0.03540 
0.39499 0.91440 -0.03553 
0.39122 0.91440 -0.03565 
0.38746 0.91440 -0.03577 
0.38369 0.91440 -0.03589 
0.37992 0.91440 -0.03600 
0.37616 0.91440 -0.03611 
0.37239 0.91440 -0.03621 
0.36863 0.91440 -0.03631 
0.36486 0.91440 -0.03641 
0.36109 0.91440 -0.03651 
0.35733 0.91440 -0.03660 
0.35356 0.91440 -0.03668 
0.34979 0.91440 -0.03677 
0.34603 0.91440 -0.03684 
0.34226 0.91440 -0.03692 
0.33849 0.91440 -0.03699 
0.33473 0.91440 -0.03706 
0.33096 0.91440 -0.03712 
0.32719 0.91440 -0.03718 
0.32343 0.91440 -0.03723 
0.31966 0.91440 -0.03728 
0.31589 0.91440 -0.03733 
0.31213 0.91440 -0.03737 
0.30836 0.91440 -0.03741 
0.30459 0.91440 -0.03744 
0.30082 0.91440 -0.03747 
0.29706 0.91440 -0.03749 
0.29329 0.91440 -0.03751 
0.28952 0.91440 -0.03752 
0.28575 0.91440 -0.03753 
0.28199 0.91440 -0.03753 
0.27822 0.91440 -0.03753 
0.27445 0.91440 -0.03752 
0.27068 0.91440 -0.03751 
0.26692 0.91440 -0.03749 
0.26315 0.91440 -0.03746 
0.25938 0.91440 -0.03743 
0.25562 0.91440 -0.03740 
0.25185 0.91440 -0.03735 
0.24808 0.91440 -0.03730 
0.24431 0.91440 -0.03725 
0.24055 0.91440 -0.03719 
0.23678 0.91440 -0.03712 
0.23301 0.91440 -0.03704 
0.22925 0.91440 -0.03696 
0.22548 0.91440 -0.03687 
0.22172 0.91440 -0.03678 
0.21795 0.91440 -0.03667 
0.21418 0.91440 -0.03656 
0.21042 0.91440 -0.03644 
0.20665 0.91440 -0.03631 
0.20289 0.91440 -0.03618 
0.19912 0.91440 -0.03603 
0.19536 0.91440 -0.03588 
0.19160 0.91440 -0.03571 
0.18783 0.91440 -0.03554 
0.18407 0.91440 -0.03536 
0.18031 0.91440 -0.03517 
0.17654 0.91440 -0.03497 
0.17278 0.91440 -0.03475 
0.16902 0.91440 -0.03453 
0.16526 0.91440 -0.03430 
0.16150 0.91440 -0.03405 
0.15774 0.91440 -0.03380 
0.15399 0.91440 -0.03354 
0.15023 0.91440 -0.03327 
0.14647 0.91440 -0.03299 
0.14271 0.91440 -0.03271 
0.13896 0.91440 -0.03242 
0.13520 0.91440 -0.03212 
0.13145 0.91440 -0.03180 
0.12769 0.91440 -0.03146 
0.12394 0.91440 -0.03110 
0.12032 0.91440 -0.03075 
0.11687 0.91440 -0.03041 
0.11358 0.91440 -0.03007 
0.11045 0.91440 -0.02973 
0.10748 0.91440 -0.02939 
0.10464 0.91440 -0.02907 
0.10194 0.91440 -0.02874 
0.09938 0.91440 -0.02841 
0.09693 0.91440 -0.02810 
0.09460 0.91440 -0.02781 
0.09238 0.91440 -0.02750 
0.09027 0.91440 -0.02722 
0.08826 0.91440 -0.02699 
0.08634 0.91440 -0.02675 
0.08443 0.91440 -0.02645 
0.08252 0.91440 -0.02618 
0.08060 0.91440 -0.02593 
0.07868 0.91440 -0.02567 
0.07677 0.91440 -0.02538 
0.07486 0.91440 -0.02508 
0.07295 0.91440 -0.02479 
0.07104 0.91440 -0.02450 
0.06913 0.91440 -0.02419 
0.06723 0.91440 -0.02385 
0.06532 0.91440 -0.02351 
0.06340 0.91440 -0.02322 
0.06149 0.91440 -0.02293 
0.05958 0.91440 -0.02260 
0.05767 0.91440 -0.02228 
0.05575 0.91440 -0.02194 
0.05385 0.91440 -0.02157 
0.05195 0.91440 -0.02119 
0.05003 0.91440 -0.02085 
0.04812 0.91440 -0.02051 
0.04621 0.91440 -0.02012 
0.04431 0.91440 -0.01972 
0.04238 0.91440 -0.01938 
0.04045 0.91440 -0.01907 
0.03852 0.91440 -0.01869 
0.03662 0.91440 -0.01826 
0.03470 0.91440 -0.01782 
0.03277 0.91440 -0.01742 
0.03084 0.91440 -0.01702 
0.02891 0.91440 -0.01658 
0.02698 0.91440 -0.01611 
0.02506 0.91440 -0.01559 
0.02314 0.91440 -0.01505 
0.02120 0.91440 -0.01454 
0.01853 0.91440 -0.01568 
0.01560 0.91440 -0.01722 
0.01340 0.91440 -0.01693 
0.01145 0.91440 -0.01601 
0.00951 0.91440 -0.01502 
0.00757 0.91440 -0.01393 
0.00565 0.91440 -0.01273 
0.00376 0.91440 -0.01137 
0.00192 0.91440 -0.00985 
0.00015 0.91440 -0.00814 
-0.00135 0.91440 -0.00635 
-0.00266 0.91440 -0.00457 
-0.00317 0.91440 -0.00232 
-0.00342 0.91440 -0.00017 
-0.00516 0.91440 0.00095 
-0.00770 0.91440 0.00193 
-0.00997 0.91440 0.00342 
-0.01209 0.91440 0.00533 
-0.01363 0.91440 0.00769 
-0.01410 0.91440 0.00946 
-0.01662 0.91440 0.01346 
-0.01677 0.91440 0.01658 
-0.01656 0.91440 0.01979 
-0.01575 0.91440 0.02287 
-0.01212 0.91440 0.02408 
-0.00543 0.91440 0.02203 
-0.00079 0.91440 0.02048 
0.00139 0.91440 0.02085 
0.00358 0.91440 0.02112 
0.00574 0.91440 0.02140 
0.00791 0.91440 0.02176 
0.00999 0.91440 0.02213 
0.01198 0.91440 0.02257 
0.01390 0.91440 0.02306 
0.01579 0.91440 0.02355 
0.01768 0.91440 0.02401 
0.01958 0.91440 0.02444 
0.02147 0.91440 0.02484 
0.02334 0.91440 0.02527 
0.02521 0.91440 0.02571 
0.02709 0.91440 0.02614 
0.02897 0.91440 0.02653 
0.03085 0.91440 0.02692 
0.03273 0.91440 0.02730 
0.03461 0.91440 0.02767 
0.03650 0.91440 0.02801 
0.03840 0.91440 0.02833 
0.04029 0.91440 0.02863 
0.04219 0.91440 0.02892 
0.04409 0.91440 0.02919 
0.04599 0.91440 0.02944 
0.04790 0.91440 0.02969 
0.04980 0.91440 0.02991 
0.05171 0.91440 0.03013 
0.05362 0.91440 0.03033 
0.05553 0.91440 0.03052 
0.05744 0.91440 0.03070 
0.05936 0.91440 0.03087 
0.06127 0.91440 0.03103 
0.06318 0.91440 0.03118 
0.06510 0.91440 0.03132 
0.06701 0.91440 0.03144 
0.06893 0.91440 0.03156 
0.07085 0.91440 0.03167 
0.07276 0.91440 0.03178 
0.07468 0.91440 0.03187 
0.07660 0.91440 0.03196 
0.07852 0.91440 0.03204 
0.08044 0.91440 0.03211 
0.08235 0.91440 0.03217 
0.08427 0.91440 0.03223 
0.08619 0.91440 0.03228 
0.08811 0.91440 0.03232 
0.09003 0.91440 0.03235 
0.09189 0.91440 0.03238 
0.09383 0.91440 0.03241 
0.09588 0.91440 0.03242 
0.09802 0.91440 0.03244 
0.10028 0.91440 0.03244 
0.10264 0.91440 0.03244 
0.10513 0.91440 0.03243 
0.10774 0.91440 0.03240 
0.11048 0.91440 0.03237 
0.11335 0.91440 0.03232 
0.11637 0.91440 0.03226 
0.11954 0.91440 0.03218 
0.12287 0.91440 0.03209 
0.12636 0.91440 0.03198 
0.13003 0.91440 0.03184 
0.13382 0.91440 0.03169 
0.13760 0.91440 0.03152 
0.14138 0.91440 0.03134 
0.14517 0.91440 0.03114 
0.14895 0.91440 0.03092 
0.15273 0.91440 0.03070 
0.15651 0.91440 0.03046 
0.16029 0.91440 0.03021 
0.16406 0.91440 0.02994 
0.16784 0.91440 0.02967 
0.17162 0.91440 0.02938 
0.17539 0.91440 0.02908 
0.17917 0.91440 0.02877 
0.18294 0.91440 0.02845 
0.18671 0.91440 0.02812 
0.19049 0.91440 0.02778 
0.19426 0.91440 0.02742 
0.19803 0.91440 0.02706 
0.20180 0.91440 0.02670 
0.20557 0.91440 0.02632 
0.20933 0.91440 0.02593 
0.21310 0.91440 0.02553 
0.21686 0.91440 0.02513 
0.22063 0.91440 0.02472 
0.22439 0.91440 0.02430 
0.22816 0.91440 0.02387 
0.23192 0.91440 0.02344 
0.23568 0.91440 0.02299 
0.23944 0.91440 0.02254 
0.24320 0.91440 0.02209 
0.24696 0.91440 0.02163 
0.25072 0.91440 0.02116 
0.25447 0.91440 0.02068 
0.25823 0.91440 0.02020 
0.26199 0.91440 0.01971 
0.26574 0.91440 0.01921 
0.26950 0.91440 0.01871 
0.27325 0.91440 0.01821 
0.27700 0.91440 0.01770 
0.28075 0.91440 0.01718 
0.28450 0.91440 0.01666 
0.28825 0.91440 0.01613 
0.29200 0.91440 0.01559 
0.29575 0.91440 0.01506 
0.29950 0.91440 0.01451 
0.30325 0.91440 0.01396 
0.30699 0.91440 0.01341 
0.31074 0.91440 0.01285 
0.31449 0.91440 0.01229 
0.31823 0.91440 0.01172 
0.32197 0.91440 0.01115 
0.32572 0.91440 0.01058 
0.32946 0.91440 0.01000 
0.33320 0.91440 0.00941 
0.33694 0.91440 0.00882 
0.34068 0.91440 0.00823 
0.34442 0.91440 0.00764 
0.34816 0.91440 0.00704 
0.35190 0.91440 0.00643 
0.35564 0.91440 0.00582 
0.35938 0.91440 0.00521 
0.36311 0.91440 0.00459 
0.36685 0.91440 0.00397 
0.37059 0.91440 0.00335 
0.37432 0.91440 0.00272 
0.37806 0.91440 0.00209 
0.38179 0.91440 0.00146 
0.38552 0.91440 0.00082 
0.38926 0.91440 0.00018 
0.39299 0.91440 -0.00047 
0.39672 0.91440 -0.00111 
0.40045 0.91440 -0.00177 
0.40418 0.91440 -0.00242 
0.40791 0.91440 -0.00308 
0.41164 0.91440 -0.00374 
0.41537 0.91440 -0.00441 
0.41909 0.91440 -0.00508 
0.42282 0.91440 -0.00575 
0.42655 0.91440 -0.00643 
0.43027 0.91440 -0.00711 
0.43400 0.91440 -0.00779 
0.43772 0.91440 -0.00848 
0.44145 0.91440 -0.00917 
0.44517 0.91440 -0.00986 
0.44889 0.91440 -0.01056 
0.45261 0.91440 -0.01126 
0.45634 0.91440 -0.01196 
0.46006 0.91440 -0.01267 
0.46378 0.91440 -0.01338 
0.46749 0.91440 -0.01410 
0.47121 0.91440 -0.01482 
0.47493 0.91440 -0.01554 
0.47865 0.91440 -0.01627 
0.48236 0.91440 -0.01699 