#+++++++++++++++++++++++++++++++++++++++++++++++++++++++++++++++++++++++++++++++++++++++++++++++++++++++++++++++++++++++++++++++++
#
#   IPW-3 Cut/Slice DATA SUBMITTAL FORM for Test Case NACA0012_AE3932, May 18th 2026
#
#       NOMENCLATURE:
#                  X [m]:  X-coordinate of the surface (clean for reference)
#                  Y [m]:  Y-coordinate of the surface (clean for reference)
#                  Z [m]:  Z-coordinate of the surface (clean for reference)
#                 Cp [-]:  Pressure coefficient
#            HTC [W/m2K]:  Convective Heat Transfer Coefficient (on the rough surface)
#               Beta [-]:  Collection efficiency
#                 Ts [K]:  Surface temperature
#                 FF [-]:  Freezing fraction
#                  k [m]:  Surface roughness height if variable (OPTIONAL)
#         RhoIce [kg/m3]:  Ice density (OPTIONAL)
#      HTC_CLEAN [W/m2K]:  Convective Heat Transfer Coefficient on the surface without roughness (OPTIONAL)
#
#                XXmm:  Roughness height used for the case, in mm.
#                       In the zone name, use the format KS_XXmm.
#                       For example, if k_s = 1.5 mm, use KS_1p5mm. 
#                       For Variable roughness, use KS_VAR
#
#    FLOW CONDITIONS:
#                                   AOA: 4.0 deg
#                           Mach Number: 0.3151 [-]
#       Mean aerodynamic chord (M.A.C.): 0.5334 [m]
#                       Reynolds Number: 3.9795 million (based on MAC)
#                       Freestream Temp: 267.55 [K]
#                        Reference area: 0.97548 [m2]
#               Moment Reference Center: 0.13335, 0, 0 [m] (X, Y, Z)
#
#    ICING CONDITIONS:
#                           Icing Time: 420 [s]
#                                  LWC: 0.55 [g/m3]
#                                  MVD: 20 [μm]
#
#    ICING CONDITIONS:
#                           Icing Time: 420 [s]
#                                  LWC: 0.55 [g/m3]
#                                  MVD: 20 [μm]
#
#              NOTES: 1. Please use at least 5 decimal places in the numerical values
#                     2. If data are NOT provided, please fill data fields with a numerical value of "-999" 
#
#++++++++++++++++++++++++++++++++++++++++++++++++++++++++++++++++++++++++++++++++++++++++++++++++++++++++++++++++++++

VARIABLES = "X" "Y" "Z" "Cp" "HTC" "Beta" "Ts" "FF" "k" "RhoIce" "HTC_CLEAN"
ZONE T="SLICE_Y_0p9144_BINS01_KS_0p5334mm_CUTDATA"
0.53086 0.91440 -0.02868 0.18335 311.73412 0.00000 267.03632 1.00000 -999.00000 -999.00000 -999.00000 
0.53086 0.91440 -0.02868 0.18335 311.73138 0.00000 267.03632 1.00000 -999.00000 -999.00000 -999.00000 
0.52843 0.91440 -0.02885 0.15907 315.11962 0.00000 267.02454 1.00000 -999.00000 -999.00000 -999.00000 
0.52843 0.91440 -0.02885 0.15907 315.11963 0.00000 267.02454 1.00000 -999.00000 -999.00000 -999.00000 
0.52453 0.91440 -0.02911 0.14364 318.24789 0.00000 267.01404 1.00000 -999.00000 -999.00000 -999.00000 
0.52453 0.91440 -0.02911 0.14364 318.24789 0.00000 267.01404 1.00000 -999.00000 -999.00000 -999.00000 
0.51931 0.91440 -0.02946 0.12652 321.25018 0.00000 267.00455 1.00000 -999.00000 -999.00000 -999.00000 
0.51931 0.91440 -0.02946 0.12652 321.25018 0.00000 267.00455 1.00000 -999.00000 -999.00000 -999.00000 
0.51409 0.91440 -0.02980 0.11078 324.19628 0.00000 266.99554 1.00000 -999.00000 -999.00000 -999.00000 
0.51409 0.91440 -0.02980 0.11078 324.19629 0.00000 266.99554 1.00000 -999.00000 -999.00000 -999.00000 
0.50887 0.91440 -0.03013 0.09716 326.86407 0.00000 266.98755 1.00000 -999.00000 -999.00000 -999.00000 
0.50887 0.91440 -0.03013 0.09716 326.86407 0.00000 266.98755 1.00000 -999.00000 -999.00000 -999.00000 
0.50365 0.91440 -0.03045 0.08518 329.28131 0.00000 266.98053 1.00000 -999.00000 -999.00000 -999.00000 
0.50365 0.91440 -0.03045 0.08518 329.28131 0.00000 266.98053 1.00000 -999.00000 -999.00000 -999.00000 
0.49843 0.91440 -0.03077 0.07448 331.50476 0.00000 266.97427 1.00000 -999.00000 -999.00000 -999.00000 
0.49843 0.91440 -0.03077 0.07448 331.50476 0.00000 266.97427 1.00000 -999.00000 -999.00000 -999.00000 
0.49321 0.91440 -0.03107 0.06486 333.57440 0.00000 266.96866 1.00000 -999.00000 -999.00000 -999.00000 
0.49321 0.91440 -0.03107 0.06486 333.57440 0.00000 266.96866 1.00000 -999.00000 -999.00000 -999.00000 
0.48799 0.91440 -0.03137 0.05611 335.52130 0.00000 266.96353 1.00000 -999.00000 -999.00000 -999.00000 
0.48799 0.91440 -0.03137 0.05611 335.52130 0.00000 266.96353 1.00000 -999.00000 -999.00000 -999.00000 
0.48277 0.91440 -0.03166 0.04807 337.36959 0.00000 266.95886 1.00000 -999.00000 -999.00000 -999.00000 
0.48277 0.91440 -0.03166 0.04807 337.36960 0.00000 266.95886 1.00000 -999.00000 -999.00000 -999.00000 
0.47754 0.91440 -0.03195 0.04064 339.13687 0.00000 266.95450 1.00000 -999.00000 -999.00000 -999.00000 
0.47754 0.91440 -0.03195 0.04064 339.13687 0.00000 266.95450 1.00000 -999.00000 -999.00000 -999.00000 
0.47232 0.91440 -0.03223 0.03373 340.83648 0.00000 266.95047 1.00000 -999.00000 -999.00000 -999.00000 
0.47232 0.91440 -0.03223 0.03373 340.83649 0.00000 266.95047 1.00000 -999.00000 -999.00000 -999.00000 
0.46710 0.91440 -0.03250 0.02728 342.47955 0.00000 266.94672 1.00000 -999.00000 -999.00000 -999.00000 
0.46710 0.91440 -0.03250 0.02728 342.47955 0.00000 266.94672 1.00000 -999.00000 -999.00000 -999.00000 
0.46187 0.91440 -0.03276 0.02123 344.07537 0.00000 266.94315 1.00000 -999.00000 -999.00000 -999.00000 
0.46187 0.91440 -0.03276 0.02123 344.07538 0.00000 266.94315 1.00000 -999.00000 -999.00000 -999.00000 
0.45665 0.91440 -0.03302 0.01553 345.63131 0.00000 266.93982 1.00000 -999.00000 -999.00000 -999.00000 
0.45665 0.91440 -0.03302 0.01553 345.63132 0.00000 266.93982 1.00000 -999.00000 -999.00000 -999.00000 
0.45143 0.91440 -0.03327 0.01014 347.15374 0.00000 266.93668 1.00000 -999.00000 -999.00000 -999.00000 
0.45143 0.91440 -0.03327 0.01014 347.15375 0.00000 266.93668 1.00000 -999.00000 -999.00000 -999.00000 
0.44620 0.91440 -0.03351 0.00502 348.64792 0.00000 266.93372 1.00000 -999.00000 -999.00000 -999.00000 
0.44620 0.91440 -0.03351 0.00502 348.64792 0.00000 266.93372 1.00000 -999.00000 -999.00000 -999.00000 
0.44098 0.91440 -0.03374 0.00016 350.11859 0.00000 266.93085 1.00000 -999.00000 -999.00000 -999.00000 
0.44098 0.91440 -0.03374 0.00016 350.11859 0.00000 266.93085 1.00000 -999.00000 -999.00000 -999.00000 
0.43575 0.91440 -0.03397 -0.00448 351.57019 0.00000 266.92816 1.00000 -999.00000 -999.00000 -999.00000 
0.43575 0.91440 -0.03397 -0.00448 351.57019 0.00000 266.92816 1.00000 -999.00000 -999.00000 -999.00000 
0.43052 0.91440 -0.03420 -0.00893 353.00674 0.00000 266.92554 1.00000 -999.00000 -999.00000 -999.00000 
0.43052 0.91440 -0.03420 -0.00893 353.00674 0.00000 266.92554 1.00000 -999.00000 -999.00000 -999.00000 
0.42530 0.91440 -0.03441 -0.01320 354.43127 0.00000 266.92303 1.00000 -999.00000 -999.00000 -999.00000 
0.42530 0.91440 -0.03441 -0.01320 354.43127 0.00000 266.92303 1.00000 -999.00000 -999.00000 -999.00000 
0.42007 0.91440 -0.03462 -0.01731 355.84631 0.00000 266.92062 1.00000 -999.00000 -999.00000 -999.00000 
0.42007 0.91440 -0.03462 -0.01731 355.84631 0.00000 266.92062 1.00000 -999.00000 -999.00000 -999.00000 
0.41484 0.91440 -0.03482 -0.02127 357.25421 0.00000 266.91833 1.00000 -999.00000 -999.00000 -999.00000 
0.41484 0.91440 -0.03482 -0.02127 357.25421 0.00000 266.91833 1.00000 -999.00000 -999.00000 -999.00000 
0.40962 0.91440 -0.03502 -0.02509 358.65716 0.00000 266.91608 1.00000 -999.00000 -999.00000 -999.00000 
0.40962 0.91440 -0.03502 -0.02509 358.65717 0.00000 266.91608 1.00000 -999.00000 -999.00000 -999.00000 
0.40439 0.91440 -0.03521 -0.02879 360.05737 0.00000 266.91391 1.00000 -999.00000 -999.00000 -999.00000 
0.40439 0.91440 -0.03521 -0.02879 360.05737 0.00000 266.91391 1.00000 -999.00000 -999.00000 -999.00000 
0.39916 0.91440 -0.03539 -0.03237 361.45691 0.00000 266.91180 1.00000 -999.00000 -999.00000 -999.00000 
0.39916 0.91440 -0.03539 -0.03237 361.45691 0.00000 266.91180 1.00000 -999.00000 -999.00000 -999.00000 
0.39394 0.91440 -0.03556 -0.03586 362.85794 0.00000 266.90979 1.00000 -999.00000 -999.00000 -999.00000 
0.39394 0.91440 -0.03556 -0.03586 362.85794 0.00000 266.90979 1.00000 -999.00000 -999.00000 -999.00000 
0.38871 0.91440 -0.03573 -0.03925 364.26266 0.00000 266.90781 1.00000 -999.00000 -999.00000 -999.00000 
0.38871 0.91440 -0.03573 -0.03925 364.26266 0.00000 266.90781 1.00000 -999.00000 -999.00000 -999.00000 
0.38348 0.91440 -0.03589 -0.04256 365.67254 0.00000 266.90588 1.00000 -999.00000 -999.00000 -999.00000 
0.38348 0.91440 -0.03589 -0.04256 365.67255 0.00000 266.90588 1.00000 -999.00000 -999.00000 -999.00000 
0.37825 0.91440 -0.03605 -0.04579 367.08825 0.00000 266.90399 1.00000 -999.00000 -999.00000 -999.00000 
0.37825 0.91440 -0.03605 -0.04579 367.08826 0.00000 266.90399 1.00000 -999.00000 -999.00000 -999.00000 
0.37302 0.91440 -0.03620 -0.04894 368.51065 0.00000 266.90213 1.00000 -999.00000 -999.00000 -999.00000 
0.37302 0.91440 -0.03620 -0.04894 368.51065 0.00000 266.90213 1.00000 -999.00000 -999.00000 -999.00000 
0.36779 0.91440 -0.03634 -0.05202 369.94189 0.00000 266.90033 1.00000 -999.00000 -999.00000 -999.00000 
0.36779 0.91440 -0.03634 -0.05202 369.94189 0.00000 266.90033 1.00000 -999.00000 -999.00000 -999.00000 
0.36257 0.91440 -0.03647 -0.05504 371.38397 0.00000 266.89856 1.00000 -999.00000 -999.00000 -999.00000 
0.36257 0.91440 -0.03647 -0.05504 371.38397 0.00000 266.89856 1.00000 -999.00000 -999.00000 -999.00000 
0.35734 0.91440 -0.03660 -0.05801 372.83795 0.00000 266.89682 1.00000 -999.00000 -999.00000 -999.00000 
0.35734 0.91440 -0.03660 -0.05801 372.83795 0.00000 266.89682 1.00000 -999.00000 -999.00000 -999.00000 
0.35211 0.91440 -0.03672 -0.06092 374.30447 0.00000 266.89511 1.00000 -999.00000 -999.00000 -999.00000 
0.35211 0.91440 -0.03672 -0.06092 374.30447 0.00000 266.89511 1.00000 -999.00000 -999.00000 -999.00000 
0.34688 0.91440 -0.03683 -0.06378 375.78405 0.00000 266.89343 1.00000 -999.00000 -999.00000 -999.00000 
0.34688 0.91440 -0.03683 -0.06378 375.78406 0.00000 266.89343 1.00000 -999.00000 -999.00000 -999.00000 
0.34165 0.91440 -0.03693 -0.06658 377.27801 0.00000 266.89178 1.00000 -999.00000 -999.00000 -999.00000 
0.34165 0.91440 -0.03693 -0.06658 377.27802 0.00000 266.89178 1.00000 -999.00000 -999.00000 -999.00000 
0.33642 0.91440 -0.03703 -0.06934 378.78781 0.00000 266.89020 1.00000 -999.00000 -999.00000 -999.00000 
0.33642 0.91440 -0.03703 -0.06934 378.78781 0.00000 266.89020 1.00000 -999.00000 -999.00000 -999.00000 
0.33119 0.91440 -0.03712 -0.07205 380.31469 0.00000 266.88858 1.00000 -999.00000 -999.00000 -999.00000 
0.33119 0.91440 -0.03712 -0.07205 380.31470 0.00000 266.88858 1.00000 -999.00000 -999.00000 -999.00000 
0.32596 0.91440 -0.03720 -0.07472 381.85955 0.00000 266.88702 1.00000 -999.00000 -999.00000 -999.00000 
0.32596 0.91440 -0.03720 -0.07472 381.85956 0.00000 266.88702 1.00000 -999.00000 -999.00000 -999.00000 
0.32073 0.91440 -0.03727 -0.07735 383.42315 0.00000 266.88547 1.00000 -999.00000 -999.00000 -999.00000 
0.32073 0.91440 -0.03727 -0.07735 383.42316 0.00000 266.88547 1.00000 -999.00000 -999.00000 -999.00000 
0.31550 0.91440 -0.03733 -0.07993 385.00634 0.00000 266.88394 1.00000 -999.00000 -999.00000 -999.00000 
0.31550 0.91440 -0.03733 -0.07993 385.00635 0.00000 266.88394 1.00000 -999.00000 -999.00000 -999.00000 
0.31027 0.91440 -0.03739 -0.08247 386.61004 0.00000 266.88248 1.00000 -999.00000 -999.00000 -999.00000 
0.31027 0.91440 -0.03739 -0.08247 386.61005 0.00000 266.88248 1.00000 -999.00000 -999.00000 -999.00000 
0.30504 0.91440 -0.03743 -0.08496 388.23538 0.00000 266.88101 1.00000 -999.00000 -999.00000 -999.00000 
0.30504 0.91440 -0.03743 -0.08496 388.23538 0.00000 266.88101 1.00000 -999.00000 -999.00000 -999.00000 
0.29981 0.91440 -0.03747 -0.08741 389.88333 0.00000 266.87958 1.00000 -999.00000 -999.00000 -999.00000 
0.29981 0.91440 -0.03747 -0.08741 389.88333 0.00000 266.87958 1.00000 -999.00000 -999.00000 -999.00000 
0.29458 0.91440 -0.03750 -0.08982 391.55493 0.00000 266.87817 1.00000 -999.00000 -999.00000 -999.00000 
0.29458 0.91440 -0.03750 -0.08982 391.55493 0.00000 266.87817 1.00000 -999.00000 -999.00000 -999.00000 
0.28935 0.91440 -0.03752 -0.09217 393.25097 0.00000 266.87677 1.00000 -999.00000 -999.00000 -999.00000 
0.28935 0.91440 -0.03752 -0.09217 393.25098 0.00000 266.87677 1.00000 -999.00000 -999.00000 -999.00000 
0.28412 0.91440 -0.03753 -0.09448 394.97250 0.00000 266.87543 1.00000 -999.00000 -999.00000 -999.00000 
0.28412 0.91440 -0.03753 -0.09448 394.97250 0.00000 266.87543 1.00000 -999.00000 -999.00000 -999.00000 
0.27889 0.91440 -0.03753 -0.09674 396.72042 0.00000 266.87408 1.00000 -999.00000 -999.00000 -999.00000 
0.27889 0.91440 -0.03753 -0.09674 396.72043 0.00000 266.87408 1.00000 -999.00000 -999.00000 -999.00000 
0.27366 0.91440 -0.03752 -0.09895 398.49572 0.00000 266.87280 1.00000 -999.00000 -999.00000 -999.00000 
0.27366 0.91440 -0.03752 -0.09895 398.49573 0.00000 266.87280 1.00000 -999.00000 -999.00000 -999.00000 
0.26843 0.91440 -0.03750 -0.10109 400.29940 0.00000 266.87158 1.00000 -999.00000 -999.00000 -999.00000 
0.26843 0.91440 -0.03750 -0.10109 400.29941 0.00000 266.87158 1.00000 -999.00000 -999.00000 -999.00000 
0.26320 0.91440 -0.03746 -0.10318 402.13263 0.00000 266.87033 1.00000 -999.00000 -999.00000 -999.00000 
0.26320 0.91440 -0.03746 -0.10318 402.13263 0.00000 266.87033 1.00000 -999.00000 -999.00000 -999.00000 
0.25797 0.91440 -0.03742 -0.10520 403.99652 0.00000 266.86914 1.00000 -999.00000 -999.00000 -999.00000 
0.25797 0.91440 -0.03742 -0.10520 403.99652 0.00000 266.86914 1.00000 -999.00000 -999.00000 -999.00000 
0.25273 0.91440 -0.03736 -0.10715 405.89212 0.00000 266.86798 1.00000 -999.00000 -999.00000 -999.00000 
0.25273 0.91440 -0.03736 -0.10715 405.89212 0.00000 266.86798 1.00000 -999.00000 -999.00000 -999.00000 
0.24750 0.91440 -0.03730 -0.10903 407.82083 0.00000 266.86688 1.00000 -999.00000 -999.00000 -999.00000 
0.24750 0.91440 -0.03730 -0.10903 407.82083 0.00000 266.86688 1.00000 -999.00000 -999.00000 -999.00000 
0.24227 0.91440 -0.03722 -0.11083 409.78387 0.00000 266.86584 1.00000 -999.00000 -999.00000 -999.00000 
0.24227 0.91440 -0.03722 -0.11083 409.78387 0.00000 266.86584 1.00000 -999.00000 -999.00000 -999.00000 
0.23705 0.91440 -0.03712 -0.11255 411.78259 0.00000 266.86484 1.00000 -999.00000 -999.00000 -999.00000 
0.23705 0.91440 -0.03712 -0.11255 411.78259 0.00000 266.86484 1.00000 -999.00000 -999.00000 -999.00000 
0.23182 0.91440 -0.03702 -0.11418 413.81823 0.00000 266.86389 1.00000 -999.00000 -999.00000 -999.00000 
0.23182 0.91440 -0.03702 -0.11418 413.81824 0.00000 266.86389 1.00000 -999.00000 -999.00000 -999.00000 
0.22659 0.91440 -0.03690 -0.11572 415.89215 0.00000 266.86298 1.00000 -999.00000 -999.00000 -999.00000 
0.22659 0.91440 -0.03690 -0.11572 415.89215 0.00000 266.86298 1.00000 -999.00000 -999.00000 -999.00000 
0.22136 0.91440 -0.03677 -0.11715 418.00576 0.00000 266.86212 1.00000 -999.00000 -999.00000 -999.00000 
0.22136 0.91440 -0.03677 -0.11715 418.00577 0.00000 266.86212 1.00000 -999.00000 -999.00000 -999.00000 
0.21613 0.91440 -0.03662 -0.11846 420.16052 0.00000 266.86136 1.00000 -999.00000 -999.00000 -999.00000 
0.21613 0.91440 -0.03662 -0.11846 420.16052 0.00000 266.86136 1.00000 -999.00000 -999.00000 -999.00000 
0.21090 0.91440 -0.03646 -0.11965 422.35800 0.00000 266.86066 1.00000 -999.00000 -999.00000 -999.00000 
0.21090 0.91440 -0.03646 -0.11965 422.35800 0.00000 266.86066 1.00000 -999.00000 -999.00000 -999.00000 
0.20567 0.91440 -0.03628 -0.12071 424.59985 0.00000 266.86005 1.00000 -999.00000 -999.00000 -999.00000 
0.20567 0.91440 -0.03628 -0.12071 424.59985 0.00000 266.86005 1.00000 -999.00000 -999.00000 -999.00000 
0.20045 0.91440 -0.03608 -0.12162 426.88809 0.00000 266.85953 1.00000 -999.00000 -999.00000 -999.00000 
0.20045 0.91440 -0.03608 -0.12162 426.88809 0.00000 266.85953 1.00000 -999.00000 -999.00000 -999.00000 
0.19522 0.91440 -0.03587 -0.12238 429.22442 0.00000 266.85907 1.00000 -999.00000 -999.00000 -999.00000 
0.19522 0.91440 -0.03587 -0.12238 429.22443 0.00000 266.85907 1.00000 -999.00000 -999.00000 -999.00000 
0.19000 0.91440 -0.03564 -0.12296 431.60971 0.00000 266.85876 1.00000 -999.00000 -999.00000 -999.00000 
0.19000 0.91440 -0.03564 -0.12296 431.60971 0.00000 266.85876 1.00000 -999.00000 -999.00000 -999.00000 
0.18477 0.91440 -0.03539 -0.12333 434.04516 0.00000 266.85852 1.00000 -999.00000 -999.00000 -999.00000 
0.18477 0.91440 -0.03539 -0.12333 434.04517 0.00000 266.85852 1.00000 -999.00000 -999.00000 -999.00000 
0.17955 0.91440 -0.03513 -0.12351 436.53411 0.00000 266.85840 1.00000 -999.00000 -999.00000 -999.00000 
0.17955 0.91440 -0.03513 -0.12351 436.53412 0.00000 266.85840 1.00000 -999.00000 -999.00000 -999.00000 
0.17432 0.91440 -0.03484 -0.12346 439.07983 0.00000 266.85846 1.00000 -999.00000 -999.00000 -999.00000 
0.17432 0.91440 -0.03484 -0.12346 439.07983 0.00000 266.85846 1.00000 -999.00000 -999.00000 -999.00000 
0.16910 0.91440 -0.03454 -0.12317 441.68420 0.00000 266.85861 1.00000 -999.00000 -999.00000 -999.00000 
0.16910 0.91440 -0.03454 -0.12317 441.68420 0.00000 266.85861 1.00000 -999.00000 -999.00000 -999.00000 
0.16388 0.91440 -0.03421 -0.12262 444.34976 0.00000 266.85895 1.00000 -999.00000 -999.00000 -999.00000 
0.16388 0.91440 -0.03421 -0.12262 444.34976 0.00000 266.85895 1.00000 -999.00000 -999.00000 -999.00000 
0.15866 0.91440 -0.03386 -0.12178 447.07989 0.00000 266.85944 1.00000 -999.00000 -999.00000 -999.00000 
0.15866 0.91440 -0.03386 -0.12178 447.07990 0.00000 266.85944 1.00000 -999.00000 -999.00000 -999.00000 
0.15345 0.91440 -0.03349 -0.12063 449.87853 0.00000 266.86011 1.00000 -999.00000 -999.00000 -999.00000 
0.15345 0.91440 -0.03349 -0.12063 449.87854 0.00000 266.86011 1.00000 -999.00000 -999.00000 -999.00000 
0.14823 0.91440 -0.03309 -0.11915 452.74786 0.00000 266.86102 1.00000 -999.00000 -999.00000 -999.00000 
0.14823 0.91440 -0.03309 -0.11915 452.74786 0.00000 266.86102 1.00000 -999.00000 -999.00000 -999.00000 
0.14302 0.91440 -0.03267 -0.11726 455.68768 0.00000 266.86212 1.00000 -999.00000 -999.00000 -999.00000 
0.14302 0.91440 -0.03267 -0.11726 455.68768 0.00000 266.86212 1.00000 -999.00000 -999.00000 -999.00000 
0.13781 0.91440 -0.03223 -0.11492 458.70745 0.00000 266.86346 1.00000 -999.00000 -999.00000 -999.00000 
0.13781 0.91440 -0.03223 -0.11492 458.70746 0.00000 266.86346 1.00000 -999.00000 -999.00000 -999.00000 
0.13258 0.91440 -0.03175 -0.11228 461.83077 0.00000 266.86502 1.00000 -999.00000 -999.00000 -999.00000 
0.13258 0.91440 -0.03175 -0.11228 461.83078 0.00000 266.86502 1.00000 -999.00000 -999.00000 -999.00000 
0.12761 0.91440 -0.03127 -0.10927 464.97674 0.00000 266.86682 1.00000 -999.00000 -999.00000 -999.00000 
0.12761 0.91440 -0.03127 -0.10927 464.97675 0.00000 266.86682 1.00000 -999.00000 -999.00000 -999.00000 
0.12288 0.91440 -0.03079 -0.10586 468.05230 0.00000 266.86880 1.00000 -999.00000 -999.00000 -999.00000 
0.12288 0.91440 -0.03079 -0.10586 468.05231 0.00000 266.86880 1.00000 -999.00000 -999.00000 -999.00000 
0.11837 0.91440 -0.03030 -0.10217 471.06356 0.00000 266.87097 1.00000 -999.00000 -999.00000 -999.00000 
0.11837 0.91440 -0.03030 -0.10217 471.06357 0.00000 266.87097 1.00000 -999.00000 -999.00000 -999.00000 
0.11408 0.91440 -0.02982 -0.09822 474.01348 0.00000 266.87329 1.00000 -999.00000 -999.00000 -999.00000 
0.11408 0.91440 -0.02982 -0.09822 474.01349 0.00000 266.87329 1.00000 -999.00000 -999.00000 -999.00000 
0.11000 0.91440 -0.02934 -0.09401 476.90057 0.00000 266.87573 1.00000 -999.00000 -999.00000 -999.00000 
0.11000 0.91440 -0.02934 -0.09401 476.90057 0.00000 266.87573 1.00000 -999.00000 -999.00000 -999.00000 
0.10611 0.91440 -0.02886 -0.08956 479.72354 0.00000 266.87836 1.00000 -999.00000 -999.00000 -999.00000 
0.10611 0.91440 -0.02886 -0.08956 479.72354 0.00000 266.87836 1.00000 -999.00000 -999.00000 -999.00000 
0.10242 0.91440 -0.02838 -0.08488 482.48226 0.00000 266.88107 1.00000 -999.00000 -999.00000 -999.00000 
0.10242 0.91440 -0.02838 -0.08488 482.48227 0.00000 266.88107 1.00000 -999.00000 -999.00000 -999.00000 
0.09890 0.91440 -0.02791 -0.08000 485.17660 0.00000 266.88394 1.00000 -999.00000 -999.00000 -999.00000 
0.09890 0.91440 -0.02791 -0.08000 485.17661 0.00000 266.88394 1.00000 -999.00000 -999.00000 -999.00000 
0.09555 0.91440 -0.02745 -0.07492 487.80663 0.00000 266.88690 1.00000 -999.00000 -999.00000 -999.00000 
0.09555 0.91440 -0.02745 -0.07492 487.80664 0.00000 266.88690 1.00000 -999.00000 -999.00000 -999.00000 
0.09236 0.91440 -0.02699 -0.06968 490.37463 0.00000 266.88998 1.00000 -999.00000 -999.00000 -999.00000 
0.09236 0.91440 -0.02699 -0.06968 490.37463 0.00000 266.88998 1.00000 -999.00000 -999.00000 -999.00000 
0.08933 0.91440 -0.02653 -0.06431 492.87438 0.00000 266.89316 1.00000 -999.00000 -999.00000 -999.00000 
0.08933 0.91440 -0.02653 -0.06431 492.87439 0.00000 266.89316 1.00000 -999.00000 -999.00000 -999.00000 
0.08933 0.91440 -0.02653 -0.06431 492.87439 0.00000 266.89316 1.00000 -999.00000 -999.00000 -999.00000 
0.08644 0.91440 -0.02609 -0.05864 495.28641 0.00000 266.89648 1.00000 -999.00000 -999.00000 -999.00000 
0.08644 0.91440 -0.02609 -0.05864 495.28641 0.00000 266.89648 1.00000 -999.00000 -999.00000 -999.00000 
0.08358 0.91440 -0.02563 -0.05263 497.67001 0.00000 266.89999 1.00000 -999.00000 -999.00000 -999.00000 
0.08358 0.91440 -0.02563 -0.05263 497.67002 0.00000 266.89999 1.00000 -999.00000 -999.00000 -999.00000 
0.08072 0.91440 -0.02516 -0.04632 500.10663 0.00000 266.90372 1.00000 -999.00000 -999.00000 -999.00000 
0.08072 0.91440 -0.02516 -0.04632 500.10663 0.00000 266.90372 1.00000 -999.00000 -999.00000 -999.00000 
0.07786 0.91440 -0.02467 -0.03953 502.59930 0.00000 266.90771 1.00000 -999.00000 -999.00000 -999.00000 
0.07786 0.91440 -0.02467 -0.03953 502.59931 0.00000 266.90771 1.00000 -999.00000 -999.00000 -999.00000 
0.07501 0.91440 -0.02417 -0.03217 505.14081 0.00000 266.91199 1.00000 -999.00000 -999.00000 -999.00000 
0.07501 0.91440 -0.02417 -0.03217 505.14081 0.00000 266.91199 1.00000 -999.00000 -999.00000 -999.00000 
0.07216 0.91440 -0.02365 -0.02425 507.73563 0.00000 266.91663 1.00000 -999.00000 -999.00000 -999.00000 
0.07216 0.91440 -0.02365 -0.02425 507.73563 0.00000 266.91663 1.00000 -999.00000 -999.00000 -999.00000 
0.06931 0.91440 -0.02311 -0.01574 510.39020 0.00040 266.78592 1.00000 -999.00000 -999.00000 -999.00000 
0.06931 0.91440 -0.02311 -0.01574 510.39020 0.00040 266.78592 1.00000 -999.00000 -999.00000 -999.00000 
0.06646 0.91440 -0.02255 -0.00658 513.10535 0.00276 266.25644 1.00000 -999.00000 -999.00000 -999.00000 
0.06646 0.91440 -0.02255 -0.00658 513.10535 0.00276 266.25644 1.00000 -999.00000 -999.00000 -999.00000 
0.06362 0.91440 -0.02198 0.00332 515.87891 0.00931 265.95932 1.00000 -999.00000 -999.00000 -999.00000 
0.06362 0.91440 -0.02198 0.00332 515.87891 0.00931 265.95932 1.00000 -999.00000 -999.00000 -999.00000 
0.06079 0.91440 -0.02138 0.01402 518.71265 0.02033 266.19534 1.00000 -999.00000 -999.00000 -999.00000 
0.06079 0.91440 -0.02138 0.01402 518.71265 0.02033 266.19534 1.00000 -999.00000 -999.00000 -999.00000 
0.05795 0.91440 -0.02076 0.02557 521.60999 0.03313 266.46448 1.00000 -999.00000 -999.00000 -999.00000 
0.05795 0.91440 -0.02076 0.02557 521.60999 0.03313 266.46448 1.00000 -999.00000 -999.00000 -999.00000 
0.05513 0.91440 -0.02012 0.03810 524.56738 0.04304 266.67120 1.00000 -999.00000 -999.00000 -999.00000 
0.05513 0.91440 -0.02012 0.03810 524.56739 0.04304 266.67120 1.00000 -999.00000 -999.00000 -999.00000 
0.05230 0.91440 -0.01946 0.05174 527.57947 0.04892 266.79376 1.00000 -999.00000 -999.00000 -999.00000 
0.05230 0.91440 -0.01946 0.05174 527.57947 0.04892 266.79376 1.00000 -999.00000 -999.00000 -999.00000 
0.04949 0.91440 -0.01877 0.06659 530.64551 0.05652 266.94815 1.00000 -999.00000 -999.00000 -999.00000 
0.04949 0.91440 -0.01877 0.06659 530.64551 0.05652 266.94815 1.00000 -999.00000 -999.00000 -999.00000 
0.04668 0.91440 -0.01805 0.08277 533.76208 0.06832 267.18262 1.00000 -999.00000 -999.00000 -999.00000 
0.04668 0.91440 -0.01805 0.08277 533.76209 0.06832 267.18262 1.00000 -999.00000 -999.00000 -999.00000 
0.04388 0.91440 -0.01731 0.10050 536.91711 0.07950 267.40173 1.00000 -999.00000 -999.00000 -999.00000 
0.04388 0.91440 -0.01731 0.10050 536.91712 0.07950 267.40173 1.00000 -999.00000 -999.00000 -999.00000 
0.04109 0.91440 -0.01654 0.11998 540.09796 0.08880 267.58191 1.00000 -999.00000 -999.00000 -999.00000 
0.04109 0.91440 -0.01654 0.11998 540.09797 0.08880 267.58191 1.00000 -999.00000 -999.00000 -999.00000 
0.03830 0.91440 -0.01573 0.14141 543.28687 0.10183 267.82901 1.00000 -999.00000 -999.00000 -999.00000 
0.03830 0.91440 -0.01573 0.14141 543.28687 0.10183 267.82901 1.00000 -999.00000 -999.00000 -999.00000 
0.03553 0.91440 -0.01488 0.16516 546.44861 0.11992 268.16525 1.00000 -999.00000 -999.00000 -999.00000 
0.03553 0.91440 -0.01488 0.16516 546.44862 0.11992 268.16525 1.00000 -999.00000 -999.00000 -999.00000 
0.03277 0.91440 -0.01400 0.19159 549.53650 0.13879 268.50986 1.00000 -999.00000 -999.00000 -999.00000 
0.03277 0.91440 -0.01400 0.19159 549.53651 0.13880 268.50986 1.00000 -999.00000 -999.00000 -999.00000 
0.03002 0.91440 -0.01307 0.22111 552.48615 0.16002 268.88913 1.00000 -999.00000 -999.00000 -999.00000 
0.03002 0.91440 -0.01307 0.22111 552.48615 0.16002 268.88913 1.00000 -999.00000 -999.00000 -999.00000 
0.02729 0.91440 -0.01210 0.25434 555.19897 0.18446 269.36133 1.00000 -999.00000 -999.00000 -999.00000 
0.02729 0.91440 -0.01210 0.25434 555.19898 0.18446 269.36133 1.00000 -999.00000 -999.00000 -999.00000 
0.02458 0.91440 -0.01108 0.29192 557.53137 0.20780 271.37292 0.99420 -999.00000 -999.00000 -999.00000 
0.02458 0.91440 -0.01108 0.29192 557.53138 0.20780 271.37293 0.99420 -999.00000 -999.00000 -999.00000 
0.02189 0.91440 -0.00999 0.33473 559.25354 0.23238 273.13776 0.82981 -999.00000 -999.00000 -999.00000 
0.02189 0.91440 -0.00999 0.33473 559.25354 0.23239 273.13776 0.82981 -999.00000 -999.00000 -999.00000 
0.01923 0.91440 -0.00884 0.38398 560.00195 0.26362 273.14999 0.59861 -999.00000 -999.00000 -999.00000 
0.01923 0.91440 -0.00884 0.38398 560.00195 0.26362 273.14999 0.59861 -999.00000 -999.00000 -999.00000 
0.01660 0.91440 -0.00761 0.44102 559.20264 0.30203 273.14999 0.48773 -999.00000 -999.00000 -999.00000 
0.01660 0.91440 -0.00761 0.44102 559.20263 0.30203 273.14999 0.48773 -999.00000 -999.00000 -999.00000 
0.01402 0.91440 -0.00629 0.50769 555.87396 0.34541 273.14999 0.42884 -999.00000 -999.00000 -999.00000 
0.01402 0.91440 -0.00629 0.50769 555.87395 0.34541 273.14999 0.42884 -999.00000 -999.00000 -999.00000 
0.01150 0.91440 -0.00487 0.58625 548.24536 0.38983 273.14999 0.39840 -999.00000 -999.00000 -999.00000 
0.01150 0.91440 -0.00487 0.58625 548.24533 0.38983 273.14999 0.39840 -999.00000 -999.00000 -999.00000 
0.00905 0.91440 -0.00332 0.67926 533.55914 0.43851 273.14999 0.38728 -999.00000 -999.00000 -999.00000 
0.00905 0.91440 -0.00332 0.67926 533.55909 0.43851 273.14999 0.38728 -999.00000 -999.00000 -999.00000 
0.00672 0.91440 -0.00160 0.78518 510.20001 0.49900 273.14999 0.38513 -999.00000 -999.00000 -999.00000 
0.00672 0.91440 -0.00160 0.78518 510.19995 0.49900 273.14999 0.38513 -999.00000 -999.00000 -999.00000 
0.00474 0.91440 0.00013 0.89091 482.39050 0.56154 273.14999 0.39795 -999.00000 -999.00000 -999.00000 
0.00474 0.91440 0.00013 0.89091 482.39039 0.56154 273.14999 0.39795 -999.00000 -999.00000 -999.00000 
0.00318 0.91440 0.00178 0.97563 428.62750 0.61940 273.14999 0.44948 -999.00000 -999.00000 -999.00000 
0.00202 0.91440 0.00337 1.01634 375.36614 0.68477 273.14999 0.45945 -999.00000 -999.00000 -999.00000 
0.00202 0.91440 0.00337 1.01634 375.36603 0.68477 273.14999 0.45945 -999.00000 -999.00000 -999.00000 
0.00202 0.91440 0.00337 1.01634 375.36621 0.68477 273.14999 0.45945 -999.00000 -999.00000 -999.00000 
0.00117 0.91440 0.00490 0.98485 457.50467 0.74456 273.14999 0.39516 -999.00000 -999.00000 -999.00000 
0.00117 0.91440 0.00490 0.98485 457.50501 0.74456 273.14999 0.39516 -999.00000 -999.00000 -999.00000 
0.00063 0.91440 0.00638 0.86020 613.82190 0.76501 273.14999 0.34378 -999.00000 -999.00000 -999.00000 
0.00063 0.91440 0.00638 0.86020 613.82210 0.76501 273.14999 0.34378 -999.00000 -999.00000 -999.00000 
0.00035 0.91440 0.00785 0.62460 708.10876 0.74004 273.14999 0.32074 -999.00000 -999.00000 -999.00000 
0.00035 0.91440 0.00785 0.62460 708.10884 0.74004 273.14999 0.32074 -999.00000 -999.00000 -999.00000 
0.00032 0.91440 0.00930 0.47590 741.67676 0.71803 273.14999 0.31268 -999.00000 -999.00000 -999.00000 
0.00032 0.91440 0.00930 0.08722 741.67721 0.71803 273.14999 0.31268 -999.00000 -999.00000 -999.00000 
0.00055 0.91440 0.01073 -0.12047 948.46912 0.62314 273.14999 0.41097 -999.00000 -999.00000 -999.00000 
0.00055 0.91440 0.01073 -0.12047 948.46920 0.62314 273.14999 0.41097 -999.00000 -999.00000 -999.00000 
0.00103 0.91440 0.01214 -0.53231 986.50244 0.55569 273.14999 0.50919 -999.00000 -999.00000 -999.00000 
0.00103 0.91440 0.01214 -0.53231 986.50250 0.55569 273.14999 0.50919 -999.00000 -999.00000 -999.00000 
0.00176 0.91440 0.01352 -0.89686 1013.84827 0.47661 273.14999 0.73343 -999.00000 -999.00000 -999.00000 
0.00176 0.91440 0.01352 -0.89686 1013.84828 0.47661 273.14999 0.73343 -999.00000 -999.00000 -999.00000 
0.00280 0.91440 0.01492 -1.17196 1018.10620 0.37691 271.09576 0.94570 -999.00000 -999.00000 -999.00000 
0.00280 0.91440 0.01492 -1.17196 1018.10617 0.37691 271.09576 0.94570 -999.00000 -999.00000 -999.00000 
0.00417 0.91440 0.01632 -1.35785 1005.74689 0.26243 267.98785 1.00000 -999.00000 -999.00000 -999.00000 
0.00417 0.91440 0.01632 -1.35785 1005.74684 0.26243 267.98785 1.00000 -999.00000 -999.00000 -999.00000 
0.00592 0.91440 0.01774 -1.46019 982.16321 0.15087 266.37997 1.00000 -999.00000 -999.00000 -999.00000 
0.00592 0.91440 0.01774 -1.46019 982.16314 0.15087 266.37997 1.00000 -999.00000 -999.00000 -999.00000 