#++++++++++++++++++++++++++++++++++++++++++++++++++++++++++++++++++++++++++++++++++++++++++++++++++++++++++++++++++++
#
#   IPW-3 Ice Shape DATA SUBMITTAL FORM for Test Case ONERAM6, May 18th 2026
#
#       NOMENCLATURE:
#                  X [m]:  X-coordinate of the clean/reference surface
#                  Y [m]:  Y-coordinate of the clean/reference surface
#                  Z [m]:  Z-coordinate of the clean/reference surface
#             X_ICED [m]:  X-coordinate of the iced surface
#             Y_ICED [m]:  Y-coordinate of the iced surface
#             Z_ICED [m]:  Z-coordinate of the iced surface
#
#                XXmm:  Roughness height used for the case, in mm.
#                       In the zone name, use the format KS_XXmm.
#                       For example, if k_s = 1.5 mm, use KS_1p5mm. 
#                       For Variable roughness, use KS_VAR
#
#    FLOW CONDITIONS:
#                                   AOA: 2.0 deg
#                           Mach Number: 0.4 [-]
#       Mean aerodynamic chord (M.A.C.): 0.801673 [m]
#                       Reynolds Number: 4.2558 million (based on MAC)
#                       Freestream Temp: 267.15 [K]
#                        Reference area: 1.1532 [m2]
#               Moment Reference Center: 0.25, 0, 0 [m] (X, Y, Z)
#
#              NOTES: 1. Please use at least 5 decimal places in the numerical values
#                     2. If data are NOT provided, please fill data fields with a numerical value of "-999" 
#
#++++++++++++++++++++++++++++++++++++++++++++++++++++++++++++++++++++++++++++++++++++++++++++++++++++++++++++++++++++

AUXDATA NUM_LAYERS  = "insert the number of total ice layers"
VARIABLES = "X" "Y" "Z" "X_ICED" "Y_ICED" "Z_ICED"

ZONE T="SLICE_Y_0p1_BINS01_KS_XXmm_SINGLE_LAYER"
-999 -999 -999 -999 -999 -999

ZONE T="SLICE_Y_0p75_BINS01_KS_XXmm_SINGLE_LAYER"
-999 -999 -999 -999 -999 -999

ZONE T="SLICE_Y_1p4_BINS01_KS_XXmm_SINGLE_LAYER"
-999 -999 -999 -999 -999 -999

ZONE T="SLICE_Y_0p1_BINS03_KS_XXmm_SINGLE_LAYER"
-999 -999 -999 -999 -999 -999

ZONE T="SLICE_Y_0p75_BINS03_KS_XXmm_SINGLE_LAYER"
-999 -999 -999 -999 -999 -999

ZONE T="SLICE_Y_1p4_BINS03_KS_XXmm_SINGLE_LAYER"
-999 -999 -999 -999 -999 -999

ZONE T="SLICE_Y_0p1_BINS07_KS_XXmm_SINGLE_LAYER"
-999 -999 -999 -999 -999 -999

ZONE T="SLICE_Y_0p75_BINS07_KS_XXmm_SINGLE_LAYER"
-999 -999 -999 -999 -999 -999

ZONE T="SLICE_Y_1p4_BINS07_KS_XXmm_SINGLE_LAYER"
-999 -999 -999 -999 -999 -999

ZONE T="SLICE_Y_0p1_BINS15_KS_XXmm_SINGLE_LAYER"
-999 -999 -999 -999 -999 -999

ZONE T="SLICE_Y_0p75_BINS15_KS_XXmm_SINGLE_LAYER"
-999 -999 -999 -999 -999 -999

ZONE T="SLICE_Y_1p4_BINS15_KS_XXmm_SINGLE_LAYER"
-999 -999 -999 -999 -999 -999

ZONE T="SLICE_Y_0p1_BINS01_KS_XXmm_FINAL_LAYER"
-999 -999 -999 -999 -999 -999

ZONE T="SLICE_Y_0p75_BINS01_KS_XXmm_FINAL_LAYER"
-999 -999 -999 -999 -999 -999

ZONE T="SLICE_Y_1p4_BINS01_KS_XXmm_FINAL_LAYER"
-999 -999 -999 -999 -999 -999

ZONE T="SLICE_Y_0p1_BINS03_KS_XXmm_FINAL_LAYER"
-999 -999 -999 -999 -999 -999

ZONE T="SLICE_Y_0p75_BINS03_KS_XXmm_FINAL_LAYER"
-999 -999 -999 -999 -999 -999

ZONE T="SLICE_Y_1p4_BINS03_KS_XXmm_FINAL_LAYER"
-999 -999 -999 -999 -999 -999

ZONE T="SLICE_Y_0p1_BINS07_KS_XXmm_FINAL_LAYER"
-999 -999 -999 -999 -999 -999

ZONE T="SLICE_Y_0p75_BINS07_KS_XXmm_FINAL_LAYER"
-999 -999 -999 -999 -999 -999

ZONE T="SLICE_Y_1p4_BINS07_KS_XXmm_FINAL_LAYER"
-999 -999 -999 -999 -999 -999

ZONE T="SLICE_Y_0p1_BINS15_KS_XXmm_FINAL_LAYER"
-999 -999 -999 -999 -999 -999

ZONE T="SLICE_Y_0p75_BINS15_KS_XXmm_FINAL_LAYER"
-999 -999 -999 -999 -999 -999

ZONE T="SLICE_Y_1p4_BINS15_KS_XXmm_FINAL_LAYER"
-999 -999 -999 -999 -999 -999
