#++++++++++++++++++++++++++++++++++++++++++++++++++++++++++++++++++++++++++++++++++++++++++++++++++++++++++++++++++++
#
#   IPW-3 Ice Shape DATA SUBMITTAL FORM for Test Case ONERAM6, May 18th 2026
#
#       NOMENCLATURE:
#             X_ICED [m]:  X-coordinate of the iced surface
#             Y_ICED [m]:  Y-coordinate of the iced surface
#             Z_ICED [m]:  Z-coordinate of the iced surface
#
#                XXmm:  Roughness height used for the case, in mm.
#                       In the zone name, use the format KS_XXmm.
#                       For example, if k_s = 1.5 mm, use KS_1p5mm. 
#                       For Variable roughness, use KS_VAR
#
#    FLOW CONDITIONS:
#                                   AOA: 2.0 deg
#                           Mach Number: 0.4 [-]
#       Mean aerodynamic chord (M.A.C.): 0.801673 [m]
#                       Reynolds Number: 4.2558 million (based on MAC)
#                       Freestream Temp: 267.15 [K]
#                        Reference area: 1.1532 [m2]
#               Moment Reference Center: 0.25, 0, 0 [m] (X, Y, Z)
#
#              NOTES: 1. Please use at least 5 decimal places in the numerical values
#                     2. If data are NOT provided, please fill data fields with a numerical value of "-999" 
#
#++++++++++++++++++++++++++++++++++++++++++++++++++++++++++++++++++++++++++++++++++++++++++++++++++++++++++++++++++++

AUXDATA NUM_LAYERS  = "insert the number of total ice layers"
VARIABLES = "X_ICED" "Y_ICED" "Z_ICED"

ZONE T="SLICE_Y_0p1_BINS01_KS_1mm_SINGLE_LAYER"
1.032201171E+00 1.148075163E-01 0.000000000E+00
1.032173991E+00 1.148075163E-01 5.214413704E-06
1.032095909E+00 1.148075163E-01 2.020607826E-05
1.032012939E+00 1.148075163E-01 3.086491779E-05
1.031774521E+00 1.148075163E-01 6.150953413E-05
1.031631470E+00 1.148075163E-01 7.990248560E-05
1.031219840E+00 1.148075163E-01 1.327830250E-04
1.031008720E+00 1.148075163E-01 1.598970848E-04
1.030401826E+00 1.148075163E-01 2.378511708E-04
1.030110955E+00 1.148075163E-01 2.751567517E-04
1.029274940E+00 1.148075163E-01 3.824119049E-04
1.028887868E+00 1.148075163E-01 4.319477011E-04
1.027774930E+00 1.148075163E-01 5.743653164E-04
1.027268767E+00 1.148075163E-01 6.388634793E-04
1.025813460E+00 1.148075163E-01 8.242985350E-04
1.025157571E+00 1.148075163E-01 9.073941037E-04
1.023271680E+00 1.148075163E-01 1.146297553E-03
1.022424817E+00 1.148075163E-01 1.252817339E-03
1.019990087E+00 1.148075163E-01 1.559066586E-03
1.018897891E+00 1.148075163E-01 1.695385552E-03
1.015757561E+00 1.148075163E-01 2.087308560E-03
1.014347911E+00 1.148075163E-01 2.261855407E-03
1.010295033E+00 1.148075163E-01 2.763685538E-03
1.008473754E+00 1.148075163E-01 2.987752669E-03
1.003237724E+00 1.148075163E-01 3.631955711E-03
1.000883222E+00 1.148075163E-01 3.921108786E-03
9.941137433E-01 1.148075163E-01 4.752436187E-03
9.910708070E-01 1.148075163E-01 5.127281882E-03
9.823223352E-01 1.148075163E-01 6.204979029E-03
9.783984423E-01 1.148075163E-01 6.688253488E-03
9.671171308E-01 1.148075163E-01 8.077689447E-03
9.526381493E-01 1.148075163E-01 9.836778976E-03
9.476020336E-01 1.148075163E-01 1.044862717E-02
9.411901236E-01 1.148075163E-01 1.120314095E-02
9.227555394E-01 1.148075163E-01 1.337240078E-02
9.146901965E-01 1.148075163E-01 1.427436806E-02
8.915020823E-01 1.148075163E-01 1.686756499E-02
8.815278411E-01 1.148075163E-01 1.791176572E-02
8.528514504E-01 1.148075163E-01 2.091389149E-02
8.407904506E-01 1.148075163E-01 2.208724059E-02
8.061146140E-01 1.148075163E-01 2.546066791E-02
7.919375300E-01 1.148075163E-01 2.673660032E-02
7.511777282E-01 1.148075163E-01 3.040495701E-02
7.350718975E-01 1.148075163E-01 3.171936050E-02
6.887669563E-01 1.148075163E-01 3.549832106E-02
6.711739898E-01 1.148075163E-01 3.672316298E-02
6.205934286E-01 1.148075163E-01 4.024463519E-02
6.021869183E-01 1.148075163E-01 4.120573774E-02
5.492672920E-01 1.148075163E-01 4.396895692E-02
5.308607817E-01 1.148075163E-01 4.452482238E-02
4.779411554E-01 1.148075163E-01 4.612295702E-02
4.603481591E-01 1.148075163E-01 4.624200612E-02
4.097675979E-01 1.148075163E-01 4.658427462E-02
3.936617970E-01 1.148075163E-01 4.634461179E-02
3.473568261E-01 1.148075163E-01 4.565556720E-02
3.331797421E-01 1.148075163E-01 4.517779872E-02
2.924199998E-01 1.148075163E-01 4.380419478E-02
2.803590000E-01 1.148075163E-01 4.319055751E-02
2.456831187E-01 1.148075163E-01 4.142632335E-02
2.357088625E-01 1.148075163E-01 4.074550048E-02
2.070324719E-01 1.148075163E-01 3.878811002E-02
1.988550872E-01 1.148798987E-01 3.911683336E-02
1.755027324E-01 1.149859875E-01 3.861154988E-02
1.567777097E-01 1.151693389E-01 3.890185431E-02
1.501676440E-01 1.152944043E-01 3.975624219E-02
1.450099796E-01 1.153673232E-01 3.967431188E-02
1.300088614E-01 1.156880856E-01 4.098856822E-02
1.259891838E-01 1.157436743E-01 4.062902182E-02
1.140305698E-01 1.161551476E-01 4.249146581E-02
1.107970923E-01 1.162660345E-01 4.235903546E-02
1.013062671E-01 1.167020053E-01 4.284969717E-02
9.861092269E-02 1.168981567E-01 4.268272966E-02
9.061338753E-02 1.176069453E-01 4.269611463E-02
8.834596723E-02 1.178618297E-01 4.223938286E-02
8.146363497E-02 1.188045144E-01 4.130762815E-02
7.963647693E-02 1.190415546E-01 4.048907757E-02
7.401501387E-02 1.199341565E-01 3.821642324E-02
7.262641191E-02 1.201012582E-01 3.715978935E-02
6.832559407E-02 1.207576171E-01 3.397957608E-02
6.728436798E-02 1.208666638E-01 3.288702667E-02
6.400871277E-02 1.213411838E-01 2.956144325E-02
6.323149055E-02 1.214088351E-01 2.851398289E-02
6.076269969E-02 1.217370480E-01 2.528121136E-02
6.023790315E-02 1.217460111E-01 2.425535955E-02
5.857369676E-02 1.218601689E-01 2.102608420E-02
5.828060955E-02 1.218045205E-01 2.002314664E-02
5.734273419E-02 1.216984391E-01 1.683413610E-02
5.719106272E-02 1.216171384E-01 1.590520330E-02
5.676503479E-02 1.213767603E-01 1.289518271E-02
5.667249858E-02 1.213076785E-01 1.206338406E-02
5.653271824E-02 1.210355386E-01 9.319162928E-03
5.649050698E-02 1.209768951E-01 8.562460542E-03
5.653604120E-02 1.207115203E-01 6.071650889E-03
5.655577406E-02 1.206520349E-01 5.345621612E-03
5.677746609E-02 1.203855500E-01 2.980507910E-03
5.685452744E-02 1.203253120E-01 2.275688807E-03
5.723537505E-02 1.200600639E-01 1.597795927E-05
5.735044181E-02 1.200093776E-01 -6.658091443E-04
5.781548470E-02 1.197862178E-01 -2.823988907E-03
5.793803558E-02 1.197635233E-01 -3.493848024E-03
5.835358426E-02 1.196619421E-01 -5.608489737E-03
5.849187449E-02 1.196650341E-01 -6.289788987E-03
5.890273675E-02 1.196665242E-01 -8.434170857E-03
5.909280106E-02 1.196791381E-01 -9.160535410E-03
5.968523398E-02 1.196891963E-01 -1.142476220E-02
5.994093418E-02 1.197101474E-01 -1.221217494E-02
6.076617166E-02 1.197188199E-01 -1.463142503E-02
6.112353504E-02 1.197369546E-01 -1.548344176E-02
6.222408265E-02 1.197475120E-01 -1.810381748E-02
6.275327504E-02 1.197355092E-01 -1.899461821E-02
6.433605403E-02 1.196664050E-01 -2.174927853E-02
6.507955492E-02 1.196175665E-01 -2.266976796E-02
6.732941419E-02 1.194133461E-01 -2.548252977E-02
6.830981374E-02 1.193385795E-01 -2.645214088E-02
7.128383964E-02 1.190351620E-01 -2.938003838E-02
7.257069647E-02 1.189258993E-01 -3.035845980E-02
7.644841820E-02 1.185105145E-01 -3.329096735E-02
7.813261449E-02 1.183554232E-01 -3.414544463E-02
8.318527788E-02 1.177893132E-01 -3.662103042E-02
8.531330526E-02 1.176149175E-01 -3.722209856E-02
9.164245427E-02 1.169922724E-01 -3.881020471E-02
9.424161166E-02 1.168522835E-01 -3.917544708E-02
1.018696502E-01 1.163596511E-01 -3.997622430E-02
1.050484851E-01 1.162812933E-01 -4.030600563E-02
1.142750382E-01 1.160045415E-01 -4.099789634E-02
1.182700545E-01 1.159637719E-01 -4.146766663E-02
1.298027039E-01 1.158186570E-01 -4.263443500E-02
1.446161270E-01 1.156186089E-01 -4.299378023E-02
1.497084945E-01 1.155872270E-01 -4.361176118E-02
1.562210768E-01 1.155266091E-01 -4.378486797E-02
1.751063019E-01 1.152464002E-01 -4.264911637E-02
1.833225638E-01 1.151489168E-01 -4.196332395E-02
2.068418115E-01 1.149350330E-01 -4.093594477E-02
2.168933749E-01 1.148833185E-01 -4.074575752E-02
2.456831187E-01 1.148075163E-01 -4.142632335E-02
2.577441037E-01 1.148075163E-01 -4.203996062E-02
2.924199998E-01 1.148075163E-01 -4.380419478E-02
3.065970838E-01 1.148075163E-01 -4.428196326E-02
3.473568261E-01 1.148075163E-01 -4.565556720E-02
3.634626567E-01 1.148075163E-01 -4.589523003E-02
4.097675979E-01 1.148075163E-01 -4.658427462E-02
4.273605943E-01 1.148075163E-01 -4.646522552E-02
4.779411554E-01 1.148075163E-01 -4.612295702E-02
4.963476956E-01 1.148075163E-01 -4.556709155E-02
5.492672920E-01 1.148075163E-01 -4.396895692E-02
5.676738620E-01 1.148075163E-01 -4.300785437E-02
6.205934286E-01 1.148075163E-01 -4.024463519E-02
6.381863952E-01 1.148075163E-01 -3.901979327E-02
6.887669563E-01 1.148075163E-01 -3.549832106E-02
7.048727870E-01 1.148075163E-01 -3.418391943E-02
7.511777282E-01 1.148075163E-01 -3.040495701E-02
7.653548121E-01 1.148075163E-01 -2.912902646E-02
8.061146140E-01 1.148075163E-01 -2.546066791E-02
8.181756139E-01 1.148075163E-01 -2.428731881E-02
8.528514504E-01 1.148075163E-01 -2.091389149E-02
8.628257513E-01 1.148075163E-01 -1.986969076E-02
8.915020823E-01 1.148075163E-01 -1.686756499E-02
8.995674253E-01 1.148075163E-01 -1.596559770E-02
9.227555394E-01 1.148075163E-01 -1.337240078E-02
9.411901236E-01 1.148075163E-01 -1.120314095E-02
9.476020336E-01 1.148075163E-01 -1.044862717E-02
9.526381493E-01 1.148075163E-01 -9.836778976E-03
9.671171308E-01 1.148075163E-01 -8.077689447E-03
9.710410237E-01 1.148075163E-01 -7.594414521E-03
9.823223352E-01 1.148075163E-01 -6.204979029E-03
9.853652716E-01 1.148075163E-01 -5.830133334E-03
9.941137433E-01 1.148075163E-01 -4.752436187E-03
9.964683056E-01 1.148075163E-01 -4.463282879E-03
1.003237724E+00 1.148075163E-01 -3.631955711E-03
1.005059004E+00 1.148075163E-01 -3.407888580E-03
1.010295033E+00 1.148075163E-01 -2.763685538E-03
1.011704683E+00 1.148075163E-01 -2.589138458E-03
1.015757561E+00 1.148075163E-01 -2.087308560E-03
1.016849875E+00 1.148075163E-01 -1.950989594E-03
1.019990087E+00 1.148075163E-01 -1.559066586E-03
1.020836949E+00 1.148075163E-01 -1.452546683E-03
1.023271680E+00 1.148075163E-01 -1.146297553E-03
1.023927569E+00 1.148075163E-01 -1.063201926E-03
1.025813460E+00 1.148075163E-01 -8.242985350E-04
1.026319742E+00 1.148075163E-01 -7.598003140E-04
1.027774930E+00 1.148075163E-01 -5.743653164E-04
1.028162003E+00 1.148075163E-01 -5.248294910E-04
1.029274940E+00 1.148075163E-01 -3.824119049E-04
1.029565692E+00 1.148075163E-01 -3.451063239E-04
1.030401826E+00 1.148075163E-01 -2.378511708E-04
1.030612946E+00 1.148075163E-01 -2.107371110E-04
1.031219840E+00 1.148075163E-01 -1.327830250E-04
1.031363010E+00 1.148075163E-01 -1.143900736E-04
1.031774521E+00 1.148075163E-01 -6.150953413E-05
1.031857491E+00 1.148075163E-01 -5.085069643E-05
1.032095909E+00 1.148075163E-01 -2.020607826E-05
1.032173991E+00 1.148075163E-01 -5.214413704E-06
1.032201171E+00 1.148075163E-01 0.000000000E+00

ZONE T="SLICE_Y_0p75_BINS01_KS_1mm_SINGLE_LAYER"
1.210194707E+00 7.483533025E-01 0.000000000E+00
1.210145593E+00 7.483533025E-01 9.424830751E-06
1.210109830E+00 7.483533025E-01 1.627812526E-05
1.209959984E+00 7.483533025E-01 3.554351861E-05
1.209851027E+00 7.483533025E-01 4.955241093E-05
1.209592223E+00 7.483533025E-01 8.279689791E-05
1.209404230E+00 7.483533025E-01 1.069707287E-04
1.209022641E+00 7.483533025E-01 1.559782395E-04
1.208745122E+00 7.483533025E-01 1.916141919E-04
1.208219528E+00 7.483533025E-01 2.590424265E-04
1.207837224E+00 7.483533025E-01 3.080730967E-04
1.207137585E+00 7.483533025E-01 3.976069856E-04
1.206628799E+00 7.483533025E-01 4.627118178E-04
1.205713987E+00 7.483533025E-01 5.792895099E-04
1.205048800E+00 7.483533025E-01 6.640593638E-04
1.203863144E+00 7.483533025E-01 8.142511360E-04
1.203001142E+00 7.483533025E-01 9.234635509E-04
1.201470494E+00 7.483533025E-01 1.115993597E-03
1.200357437E+00 7.483533025E-01 1.255992451E-03
1.198383212E+00 7.483533025E-01 1.502383268E-03
1.196947575E+00 7.483533025E-01 1.681547030E-03
1.194399714E+00 7.483533025E-01 1.997033367E-03
1.192546964E+00 7.483533025E-01 2.226440003E-03
1.189255238E+00 7.483533025E-01 2.631431911E-03
1.186861634E+00 7.483533025E-01 2.925923094E-03
1.182605863E+00 7.483533025E-01 3.448555013E-03
1.179511189E+00 7.483533025E-01 3.828588175E-03
1.174011350E+00 7.483533025E-01 4.506106023E-03
1.170011997E+00 7.483533025E-01 4.998764955E-03
1.162919760E+00 7.483533025E-01 5.872263107E-03
1.157762647E+00 7.483533025E-01 6.507430691E-03
1.151143670E+00 7.483533025E-01 7.311581634E-03
1.142041206E+00 7.483533025E-01 8.417471312E-03
1.130451918E+00 7.483533025E-01 9.781222790E-03
1.122024655E+00 7.483533025E-01 1.077287830E-02
1.107447028E+00 7.483533025E-01 1.240314730E-02
1.096846819E+00 7.483533025E-01 1.358860172E-02
1.078818798E+00 7.483533025E-01 1.547595207E-02
1.065709591E+00 7.483533025E-01 1.684834436E-02
1.043909907E+00 7.483533025E-01 1.896912232E-02
1.028058171E+00 7.483533025E-01 2.051125281E-02
1.002433658E+00 7.483533025E-01 2.281744406E-02
9.838007092E-01 7.483533025E-01 2.449439839E-02
9.546901584E-01 7.483533025E-01 2.687012404E-02
9.335222840E-01 7.483533025E-01 2.859763987E-02
9.017236829E-01 7.483533025E-01 3.081148863E-02
8.786012530E-01 7.483533025E-01 3.242129460E-02
8.453322053E-01 7.483533025E-01 3.415845335E-02
8.211405873E-01 7.483533025E-01 3.542162850E-02
7.878715396E-01 7.483533025E-01 3.642633185E-02
7.636798620E-01 7.483533025E-01 3.715690225E-02
7.318812609E-01 7.483533025E-01 3.737207875E-02
7.087588310E-01 7.483533025E-01 3.752854466E-02
6.796482801E-01 7.483533025E-01 3.709536418E-02
6.584804058E-01 7.483533025E-01 3.678037226E-02
6.328558922E-01 7.483533025E-01 3.591682762E-02
6.142230034E-01 7.483533025E-01 3.528889641E-02
5.924232602E-01 7.483533025E-01 3.417977318E-02
5.765715241E-01 7.483533025E-01 3.337327018E-02
5.585435033E-01 7.483533025E-01 3.214271367E-02
5.454343557E-01 7.483533025E-01 3.124790825E-02
5.308566093E-01 7.483533025E-01 2.998170257E-02
5.202564001E-01 7.483533025E-01 2.906097658E-02
5.118292570E-01 7.483533025E-01 2.816358022E-02
5.002399683E-01 7.483533025E-01 2.692945860E-02
4.911374450E-01 7.483533025E-01 2.578082122E-02
4.845184982E-01 7.483533025E-01 2.494558692E-02
4.769120514E-01 7.486693263E-01 2.697264031E-02
4.713562131E-01 7.489144206E-01 2.859403938E-02
4.642933607E-01 7.498582602E-01 3.491186351E-02
4.591165185E-01 7.505693436E-01 3.969658911E-02
4.528262615E-01 7.517664433E-01 4.411786795E-02
4.482052028E-01 7.526643276E-01 4.742232710E-02
4.426937997E-01 7.539414167E-01 4.811854288E-02
4.386135638E-01 7.549120188E-01 4.870259389E-02
4.338089228E-01 7.562024593E-01 4.772354290E-02
4.302306175E-01 7.571893930E-01 4.705062881E-02
4.265314341E-01 7.581696510E-01 4.458990693E-02
4.237420559E-01 7.589396238E-01 4.282482341E-02
4.211147428E-01 7.595587373E-01 3.972822055E-02
4.190662503E-01 7.600885034E-01 3.752337396E-02
4.173163772E-01 7.604031563E-01 3.428146616E-02
4.159811437E-01 7.606678009E-01 3.187596053E-02
4.146763086E-01 7.608847618E-01 2.887992747E-02
4.138907790E-01 7.609476447E-01 2.647215687E-02
4.130332172E-01 7.610327601E-01 2.363840304E-02
4.126054943E-01 7.609811425E-01 2.137843333E-02
4.125013649E-01 7.607330680E-01 1.848636940E-02
4.124372900E-01 7.605459094E-01 1.634106040E-02
4.126985371E-01 7.601715326E-01 1.364994235E-02
4.128348827E-01 7.599302530E-01 1.168862544E-02
4.131700099E-01 7.595854402E-01 9.310078807E-03
4.134033918E-01 7.593405843E-01 7.553297561E-03
4.139578640E-01 7.589327693E-01 5.309824366E-03
4.143811464E-01 7.586246729E-01 3.644238226E-03
4.150998592E-01 7.581809759E-01 1.573308953E-03
4.156503975E-01 7.578422427E-01 3.754746285E-05
4.163471758E-01 7.574686408E-01 -1.861664816E-03
4.168660939E-01 7.571899295E-01 -3.267966444E-03
4.174861908E-01 7.569192648E-01 -5.061188713E-03
4.179461598E-01 7.567172050E-01 -6.387599278E-03
4.185488522E-01 7.565199137E-01 -8.109929040E-03
4.190125465E-01 7.563617826E-01 -9.376117028E-03
4.195843041E-01 7.562538385E-01 -1.119523589E-02
4.200300574E-01 7.561581135E-01 -1.252520178E-02
4.206189215E-01 7.561243773E-01 -1.450780872E-02
4.210427701E-01 7.561023235E-01 -1.597415656E-02
4.218467176E-01 7.560458779E-01 -1.808840595E-02
4.223768115E-01 7.560364604E-01 -1.969435625E-02
4.235369265E-01 7.558997869E-01 -2.190612070E-02
4.243457615E-01 7.558206916E-01 -2.358320355E-02
4.259795845E-01 7.555684447E-01 -2.585139871E-02
4.271943271E-01 7.553697228E-01 -2.752118371E-02
4.293885827E-01 7.549950480E-01 -2.983264439E-02
4.310238063E-01 7.546999454E-01 -3.152030706E-02
4.338860512E-01 7.541980147E-01 -3.377145529E-02
4.360018671E-01 7.538132668E-01 -3.541652858E-02
4.397050142E-01 7.531574368E-01 -3.713444620E-02
4.424349964E-01 7.526591420E-01 -3.837639466E-02
4.469617307E-01 7.519536614E-01 -3.911668062E-02
4.502817690E-01 7.514244318E-01 -3.965104371E-02
4.554878771E-01 7.508773208E-01 -3.959792107E-02
4.592909813E-01 7.504695058E-01 -3.955650330E-02
4.653261602E-01 7.501577139E-01 -3.936941177E-02
4.697279036E-01 7.499232888E-01 -3.920290247E-02
4.771098793E-01 7.497538924E-01 -3.945799544E-02
4.824879467E-01 7.496246099E-01 -3.960131109E-02
4.895375967E-01 7.493578792E-01 -3.763312101E-02
4.992341399E-01 7.489895225E-01 -3.486301005E-02
5.113468766E-01 7.486591339E-01 -3.203612193E-02
5.201650858E-01 7.484123111E-01 -2.989980765E-02
5.347865820E-01 7.483839989E-01 -3.076391481E-02
5.454343557E-01 7.483533025E-01 -3.124790825E-02
5.634623766E-01 7.483533025E-01 -3.247846663E-02
5.765715241E-01 7.483533025E-01 -3.337327018E-02
5.983712673E-01 7.483533025E-01 -3.448239341E-02
6.142230034E-01 7.483533025E-01 -3.528889641E-02
6.398475170E-01 7.483533025E-01 -3.615244478E-02
6.584804058E-01 7.483533025E-01 -3.678037226E-02
6.875910163E-01 7.483533025E-01 -3.721355274E-02
7.087588310E-01 7.483533025E-01 -3.752854466E-02
7.405574322E-01 7.483533025E-01 -3.731336817E-02
7.636798620E-01 7.483533025E-01 -3.715690225E-02
7.969489098E-01 7.483533025E-01 -3.615220264E-02
8.211405873E-01 7.483533025E-01 -3.542162850E-02
8.544095755E-01 7.483533025E-01 -3.368447348E-02
8.786012530E-01 7.483533025E-01 -3.242129460E-02
9.103998542E-01 7.483533025E-01 -3.020744771E-02
9.335222840E-01 7.483533025E-01 -2.859763987E-02
9.626328945E-01 7.483533025E-01 -2.622191422E-02
9.838007092E-01 7.483533025E-01 -2.449439839E-02
1.009425282E+00 7.483533025E-01 -2.218820713E-02
1.028058171E+00 7.483533025E-01 -2.051125281E-02
1.049857855E+00 7.483533025E-01 -1.839047484E-02
1.065709591E+00 7.483533025E-01 -1.684834436E-02
1.083737731E+00 7.483533025E-01 -1.496099401E-02
1.096846819E+00 7.483533025E-01 -1.358860172E-02
1.111424446E+00 7.483533025E-01 -1.195833366E-02
1.122024655E+00 7.483533025E-01 -1.077287830E-02
1.130451918E+00 7.483533025E-01 -9.781222790E-03
1.142041206E+00 7.483533025E-01 -8.417471312E-03
1.151143670E+00 7.483533025E-01 -7.311581634E-03
1.157762647E+00 7.483533025E-01 -6.507430691E-03
1.164854884E+00 7.483533025E-01 -5.633932073E-03
1.170011997E+00 7.483533025E-01 -4.998764955E-03
1.175511956E+00 7.483533025E-01 -4.321247339E-03
1.179511189E+00 7.483533025E-01 -3.828588175E-03
1.183767080E+00 7.483533025E-01 -3.305956488E-03
1.186861634E+00 7.483533025E-01 -2.925923094E-03
1.190153360E+00 7.483533025E-01 -2.520931186E-03
1.192546964E+00 7.483533025E-01 -2.226440003E-03
1.195094943E+00 7.483533025E-01 -1.910953782E-03
1.196947575E+00 7.483533025E-01 -1.681547030E-03
1.198921919E+00 7.483533025E-01 -1.435156213E-03
1.200357437E+00 7.483533025E-01 -1.255992451E-03
1.201888084E+00 7.483533025E-01 -1.063462463E-03
1.203001142E+00 7.483533025E-01 -9.234635509E-04
1.204186678E+00 7.483533025E-01 -7.732717786E-04
1.205048800E+00 7.483533025E-01 -6.640593638E-04
1.205963492E+00 7.483533025E-01 -5.474816426E-04
1.206628799E+00 7.483533025E-01 -4.627118178E-04
1.207328439E+00 7.483533025E-01 -3.731779289E-04
1.207837224E+00 7.483533025E-01 -3.080730967E-04
1.208362937E+00 7.483533025E-01 -2.406448621E-04
1.208745122E+00 7.483533025E-01 -1.916141919E-04
1.209126711E+00 7.483533025E-01 -1.426066883E-04
1.209404230E+00 7.483533025E-01 -1.069707287E-04
1.209662914E+00 7.483533025E-01 -7.372624532E-05
1.209851027E+00 7.483533025E-01 -4.955241093E-05
1.210000873E+00 7.483533025E-01 -3.028701758E-05
1.210109830E+00 7.483533025E-01 -1.627812526E-05
1.210145593E+00 7.483533025E-01 -9.424830751E-06
1.210194707E+00 7.483533025E-01 0.000000000E+00

ZONE T="SLICE_Y_1p4_BINS01_KS_1mm_SINGLE_LAYER"
1.393216133E+00 1.399795294E+00 0.000000000E+00
1.393188596E+00 1.399795294E+00 5.283345217E-06
1.393152356E+00 1.399795294E+00 1.223921845E-05
1.393068314E+00 1.399795294E+00 2.303895963E-05
1.392957687E+00 1.399795294E+00 3.725753413E-05
1.392812729E+00 1.399795294E+00 5.589363354E-05
1.392621756E+00 1.399795294E+00 8.042929403E-05
1.392407894E+00 1.399795294E+00 1.079017748E-04
1.392126203E+00 1.399795294E+00 1.440711203E-04
1.391831636E+00 1.399795294E+00 1.818698656E-04
1.391443610E+00 1.399795294E+00 2.316344035E-04
1.391051412E+00 1.399795294E+00 2.818250505E-04
1.390534997E+00 1.399795294E+00 3.479043662E-04
1.390022159E+00 1.399795294E+00 4.132551549E-04
1.389346957E+00 1.399795294E+00 4.992937902E-04
1.388682365E+00 1.399795294E+00 5.834878539E-04
1.387807369E+00 1.399795294E+00 6.943349144E-04
1.386949420E+00 1.399795294E+00 8.022629190E-04
1.385819674E+00 1.399795294E+00 9.443572490E-04
1.384713054E+00 1.399795294E+00 1.082478324E-03
1.383255959E+00 1.399795294E+00 1.264323713E-03
1.381827712E+00 1.399795294E+00 1.441178145E-03
1.379947186E+00 1.399795294E+00 1.674018567E-03
1.378101945E+00 1.399795294E+00 1.901047886E-03
1.375672460E+00 1.399795294E+00 2.199946903E-03
1.373286724E+00 1.399795294E+00 2.492922358E-03
1.370145798E+00 1.399795294E+00 2.878643805E-03
1.367062688E+00 1.399795294E+00 3.258444835E-03
1.363003492E+00 1.399795294E+00 3.758477746E-03
1.359027863E+00 1.399795294E+00 4.248140845E-03
1.353793502E+00 1.399795294E+00 4.892814904E-03
1.347075462E+00 1.399795294E+00 5.709002260E-03
1.341972828E+00 1.399795294E+00 6.328938529E-03
1.335476041E+00 1.399795294E+00 7.093426306E-03
1.326922774E+00 1.399795294E+00 8.099925704E-03
1.318750858E+00 1.399795294E+00 9.013816714E-03
1.307991982E+00 1.399795294E+00 1.021701470E-02
1.297885895E+00 1.399795294E+00 1.127502043E-02
1.284580469E+00 1.399795294E+00 1.266795490E-02
1.272359967E+00 1.399795294E+00 1.385681517E-02
1.256271005E+00 1.399795294E+00 1.542202756E-02
1.241906524E+00 1.399795294E+00 1.671482623E-02
1.222994685E+00 1.399795294E+00 1.841687970E-02
1.206676006E+00 1.399795294E+00 1.974865608E-02
1.185191274E+00 1.399795294E+00 2.150202915E-02
1.167365789E+00 1.399795294E+00 2.274306305E-02
1.143897176E+00 1.399795294E+00 2.437696606E-02
1.125247359E+00 1.399795294E+00 2.535077557E-02
1.100693583E+00 1.399795294E+00 2.663286030E-02
1.082043767E+00 1.399795294E+00 2.719607390E-02
1.057489991E+00 1.399795294E+00 2.793757990E-02
1.039664388E+00 1.399795294E+00 2.805820294E-02
1.016195893E+00 1.399795294E+00 2.821701020E-02
9.998771548E-01 1.399795294E+00 2.797417715E-02
9.783924818E-01 1.399795294E+00 2.765447460E-02
9.640279412E-01 1.399795294E+00 2.717038989E-02
9.451161623E-01 1.399795294E+00 2.653305978E-02
9.328957200E-01 1.399795294E+00 2.591131255E-02
9.168066978E-01 1.399795294E+00 2.509273961E-02
9.067006111E-01 1.399795294E+00 2.440291643E-02
8.933952451E-01 1.399795294E+00 2.349471860E-02
8.852233291E-01 1.399795294E+00 2.278491296E-02
8.744644523E-01 1.399795294E+00 2.185040526E-02
8.659111261E-01 1.399795294E+00 2.093957737E-02
8.594144583E-01 1.399795294E+00 2.024775557E-02
8.543117642E-01 1.399795294E+00 1.960385591E-02
8.475937843E-01 1.399795294E+00 1.875611953E-02
8.432683349E-01 1.400010228E+00 2.025816403E-02
8.375496268E-01 1.400307894E+00 2.237809077E-02
8.332393765E-01 1.401049018E+00 2.754913084E-02
8.275604248E-01 1.402027249E+00 3.437694162E-02
8.234918118E-01 1.403018951E+00 3.848094493E-02
8.181487322E-01 1.404316187E+00 4.377625883E-02
8.144858479E-01 1.405362844E+00 4.472024739E-02
8.096568584E-01 1.406744599E+00 4.596874118E-02
8.062236905E-01 1.407893419E+00 4.579878971E-02
8.016934395E-01 1.409411907E+00 4.557717964E-02
7.987733483E-01 1.410447836E+00 4.444624484E-02
7.949039340E-01 1.411826253E+00 4.298086837E-02
7.927450538E-01 1.412566543E+00 4.109987989E-02
7.898863554E-01 1.413550496E+00 3.862746432E-02
7.886133194E-01 1.413892031E+00 3.620699048E-02
7.869408131E-01 1.414339781E+00 3.299979120E-02
7.863240838E-01 1.414391994E+00 3.046179935E-02
7.855190635E-01 1.414456844E+00 2.710128203E-02
7.853111625E-01 1.414344668E+00 2.469429560E-02
7.850360870E-01 1.414197803E+00 2.151572332E-02
7.851899862E-01 1.413934827E+00 1.925835013E-02
7.853840590E-01 1.413593411E+00 1.628141291E-02
7.857421041E-01 1.413260460E+00 1.424363069E-02
7.862147689E-01 1.412821293E+00 1.155164093E-02
7.866070271E-01 1.412509441E+00 9.765494615E-03
7.871406674E-01 1.412088871E+00 7.401279639E-03
7.875815034E-01 1.411784887E+00 5.745605566E-03
7.881656289E-01 1.411382556E+00 3.557607764E-03
7.886792421E-01 1.411069870E+00 2.039755229E-03
7.893373370E-01 1.410668492E+00 3.513673073E-05
7.899051905E-01 1.410356760E+00 -1.347834477E-03
7.906385064E-01 1.409954667E+00 -3.178164829E-03
7.912027836E-01 1.409678102E+00 -4.460787401E-03
7.919402122E-01 1.409317255E+00 -6.160949823E-03
7.924124599E-01 1.409129381E+00 -7.378535811E-03
7.930304408E-01 1.408884168E+00 -8.993619122E-03
7.934393287E-01 1.408773184E+00 -1.026753522E-02
7.939761877E-01 1.408628106E+00 -1.195728406E-02
7.943787575E-01 1.408568025E+00 -1.334054954E-02
7.949082851E-01 1.408489347E+00 -1.517528947E-02
7.953605652E-01 1.408457875E+00 -1.670777053E-02
7.959563732E-01 1.408416271E+00 -1.874015108E-02
7.965899110E-01 1.408350825E+00 -2.040560357E-02
7.974236012E-01 1.408265114E+00 -2.261667699E-02
7.983800173E-01 1.408102632E+00 -2.435876802E-02
7.996364832E-01 1.407890320E+00 -2.667865902E-02
8.010689616E-01 1.407565951E+00 -2.833918296E-02
8.029618263E-01 1.407135010E+00 -3.054483794E-02
8.049357533E-01 1.406642914E+00 -3.196287155E-02
8.075575829E-01 1.405981779E+00 -3.382382542E-02
8.100246191E-01 1.405390859E+00 -3.484453261E-02
8.132959604E-01 1.404599547E+00 -3.617354482E-02
8.161832094E-01 1.404004097E+00 -3.649549931E-02
8.199993968E-01 1.403211713E+00 -3.690950200E-02
8.231811523E-01 1.402753353E+00 -3.660582751E-02
8.273795247E-01 1.402144432E+00 -3.619602323E-02
8.308945298E-01 1.401893497E+00 -3.588316962E-02
8.355252743E-01 1.401561499E+00 -3.547481075E-02
8.397318125E-01 1.401427031E+00 -3.549268842E-02
8.452714086E-01 1.401249409E+00 -3.551932424E-02
8.524044752E-01 1.400998712E+00 -3.430934623E-02
8.578079939E-01 1.400817513E+00 -3.350818902E-02
8.647539020E-01 1.400533915E+00 -3.071500175E-02
8.739050627E-01 1.400156498E+00 -2.698786929E-02
8.823231459E-01 1.399997592E+00 -2.543675154E-02
8.933952451E-01 1.399795294E+00 -2.349471860E-02
9.035013914E-01 1.399795294E+00 -2.418454178E-02
9.168066978E-01 1.399795294E+00 -2.509273961E-02
9.290271401E-01 1.399795294E+00 -2.571448684E-02
9.451161623E-01 1.399795294E+00 -2.653305978E-02
9.594806433E-01 1.399795294E+00 -2.701714449E-02
9.783924818E-01 1.399795294E+00 -2.765447460E-02
9.947112203E-01 1.399795294E+00 -2.789730579E-02
1.016195893E+00 1.399795294E+00 -2.821701020E-02
1.034021378E+00 1.399795294E+00 -2.809638716E-02
1.057489991E+00 1.399795294E+00 -2.793757990E-02
1.076139808E+00 1.399795294E+00 -2.737436630E-02
1.100693583E+00 1.399795294E+00 -2.663286030E-02
1.119343400E+00 1.399795294E+00 -2.565905079E-02
1.143897176E+00 1.399795294E+00 -2.437696606E-02
1.161722779E+00 1.399795294E+00 -2.313593216E-02
1.185191274E+00 1.399795294E+00 -2.150202915E-02
1.201510072E+00 1.399795294E+00 -2.017025277E-02
1.222994685E+00 1.399795294E+00 -1.841687970E-02
1.237359166E+00 1.399795294E+00 -1.712408103E-02
1.256271005E+00 1.399795294E+00 -1.542202756E-02
1.268491507E+00 1.399795294E+00 -1.423316728E-02
1.284580469E+00 1.399795294E+00 -1.266795490E-02
1.294686556E+00 1.399795294E+00 -1.160995010E-02
1.307991982E+00 1.399795294E+00 -1.021701470E-02
1.316163898E+00 1.399795294E+00 -9.303123690E-03
1.326922774E+00 1.399795294E+00 -8.099925704E-03
1.335476041E+00 1.399795294E+00 -7.093426306E-03
1.341972828E+00 1.399795294E+00 -6.328938529E-03
1.347075462E+00 1.399795294E+00 -5.709002260E-03
1.353793502E+00 1.399795294E+00 -4.892814904E-03
1.357769132E+00 1.399795294E+00 -4.403151572E-03
1.363003492E+00 1.399795294E+00 -3.758477746E-03
1.366086721E+00 1.399795294E+00 -3.378676716E-03
1.370145798E+00 1.399795294E+00 -2.878643805E-03
1.372531533E+00 1.399795294E+00 -2.585668582E-03
1.375672460E+00 1.399795294E+00 -2.199946903E-03
1.377517700E+00 1.399795294E+00 -1.972917700E-03
1.379947186E+00 1.399795294E+00 -1.674018567E-03
1.381375551E+00 1.399795294E+00 -1.497164252E-03
1.383255959E+00 1.399795294E+00 -1.264323713E-03
1.384362698E+00 1.399795294E+00 -1.126202755E-03
1.385819674E+00 1.399795294E+00 -9.443572490E-04
1.386677742E+00 1.399795294E+00 -8.364292444E-04
1.387807369E+00 1.399795294E+00 -6.943349144E-04
1.388472080E+00 1.399795294E+00 -6.101408508E-04
1.389346957E+00 1.399795294E+00 -4.992937902E-04
1.389859796E+00 1.399795294E+00 -4.339430016E-04
1.390534997E+00 1.399795294E+00 -3.479043662E-04
1.390927196E+00 1.399795294E+00 -2.977137046E-04
1.391443610E+00 1.399795294E+00 -2.316344035E-04
1.391738296E+00 1.399795294E+00 -1.938356581E-04
1.392126203E+00 1.399795294E+00 -1.440711203E-04
1.392340183E+00 1.399795294E+00 -1.165986323E-04
1.392621756E+00 1.399795294E+00 -8.042929403E-05
1.392766833E+00 1.399795294E+00 -6.179319462E-05
1.392957687E+00 1.399795294E+00 -3.725753413E-05
1.393041730E+00 1.399795294E+00 -2.645779205E-05
1.393152356E+00 1.399795294E+00 -1.223921845E-05
1.393188596E+00 1.399795294E+00 -5.283345217E-06
1.393216133E+00 1.399795294E+00 0.000000000E+00

ZONE T="SLICE_Y_0p1_BINS03_KS_1mm_SINGLE_LAYER"
1.032201171E+00 1.148075163E-01 0.000000000E+00
1.032173991E+00 1.148075163E-01 5.214413704E-06
1.032095909E+00 1.148075163E-01 2.020607826E-05
1.032012939E+00 1.148075163E-01 3.086491779E-05