#+++++++++++++++++++++++++++++++++++++++++++++++++++++++++++++++++++++++++++++++++++++++++++++++++++++++++++++++++++++++++++++++++
#
#   IPW-3 Cut/Slice DATA SUBMITTAL FORM for Test Case NACA0012_AE3932, May 18th 2026
#
#       NOMENCLATURE:
#                  X [m]:  X-coordinate of the surface (clean for reference)
#                  Y [m]:  Y-coordinate of the surface (clean for reference)
#                  Z [m]:  Z-coordinate of the surface (clean for reference)
#                 Cp [-]:  Pressure coefficient
#            HTC [W/m2K]:  Convective Heat Transfer Coefficient (on the rough surface)
#               Beta [-]:  Collection efficiency
#                 Ts [K]:  Surface temperature
#                 FF [-]:  Freezing fraction
#                  k [m]:  Surface roughness height if variable (OPTIONAL)
#         RhoIce [kg/m3]:  Ice density (OPTIONAL)
#      HTC_CLEAN [W/m2K]:  Convective Heat Transfer Coefficient on the surface without roughness (OPTIONAL)
#
#                XXmm:  Roughness height used for the case, in mm.
#                       In the zone name, use the format KS_XXmm.
#                       For example, if k_s = 1.5 mm, use KS_1p5mm. 
#                       For Variable roughness, use KS_VAR
#
#    FLOW CONDITIONS:
#                                   AOA: 4.0 deg
#                           Mach Number: 0.3151 [-]
#       Mean aerodynamic chord (M.A.C.): 0.5334 [m]
#                       Reynolds Number: 3.9795 million (based on MAC)
#                       Freestream Temp: 267.55 [K]
#                        Reference area: 0.97548 [m2]
#               Moment Reference Center: 0.13335, 0, 0 [m] (X, Y, Z)
#
#    ICING CONDITIONS:
#                           Icing Time: 420 [s]
#                                  LWC: 0.55 [g/m3]
#                                  MVD: 20 [μm]
#
#              NOTES: 1. Please use at least 5 decimal places in the numerical values
#                     2. If data are NOT provided, please fill data fields with a numerical value of "-999" 
#
#++++++++++++++++++++++++++++++++++++++++++++++++++++++++++++++++++++++++++++++++++++++++++++++++++++++++++++++++++++

                                                    <- Optional ->                 
VARIABLES = "X" "Y" "Z" "Cp" "HTC" "Beta" "Ts" "FF" "k" "RhoIce" "HTC_CLEAN"

ZONE T="SLICE_Y_0p9144_BINS01_KS_1mm_CUTDATA"
5.324723721E-01 9.143999815E-01 -2.723562904E-02 8.712796122E-02 2.446230316E+02 0.000000000E+00 2.669819336E+02 -1.000000000E+00 -9.990000000E+02 0.000000000E+00 -9.990000000E+02
5.322237611E-01 9.143999815E-01 -2.718285844E-02 9.492607415E-02 2.595141907E+02 0.000000000E+00 2.669864807E+02 -1.000000000E+00 -9.990000000E+02 0.000000000E+00 -9.990000000E+02
5.322237611E-01 9.143999815E-01 -2.718285844E-02 9.492607415E-02 2.595143127E+02 0.000000000E+00 2.669864807E+02 -1.000000000E+00 -9.990000000E+02 0.000000000E+00 -9.990000000E+02
5.318259001E-01 9.143999815E-01 -2.709846944E-02 9.384584427E-02 2.581612549E+02 0.000000000E+00 2.669858398E+02 -1.000000000E+00 -9.990000000E+02 0.000000000E+00 -9.990000000E+02
5.318259001E-01 9.143999815E-01 -2.709846944E-02 9.384584427E-02 2.581612549E+02 0.000000000E+00 2.669858398E+02 -1.000000000E+00 -9.990000000E+02 0.000000000E+00 -9.990000000E+02
5.311893225E-01 9.143999815E-01 -2.696358971E-02 9.278532118E-02 2.577355652E+02 0.000000000E+00 2.669852295E+02 -1.000000000E+00 -9.990000000E+02 0.000000000E+00 -9.990000000E+02
5.311893225E-01 9.143999815E-01 -2.696358785E-02 9.278532118E-02 2.577355652E+02 0.000000000E+00 2.669852295E+02 -1.000000000E+00 -9.990000000E+02 0.000000000E+00 -9.990000000E+02
5.301707983E-01 9.143999815E-01 -2.674788423E-02 9.104365110E-02 2.576234436E+02 0.000000000E+00 2.669842224E+02 -1.000000000E+00 -9.990000000E+02 0.000000000E+00 -9.990000000E+02
5.301707983E-01 9.143999815E-01 -2.674788237E-02 9.104365110E-02 2.576234436E+02 0.000000000E+00 2.669842224E+02 -1.000000000E+00 -9.990000000E+02 0.000000000E+00 -9.990000000E+02
5.285409093E-01 9.143999815E-01 -2.640357241E-02 8.821928501E-02 2.579288025E+02 0.000000000E+00 2.669825745E+02 -1.000000000E+00 -9.990000000E+02 0.000000000E+00 -9.990000000E+02
5.285409093E-01 9.143999815E-01 -2.640357055E-02 8.821928501E-02 2.579288025E+02 0.000000000E+00 2.669825745E+02 -1.000000000E+00 -9.990000000E+02 0.000000000E+00 -9.990000000E+02
5.260180831E-01 9.143999815E-01 -2.587223984E-02 8.446988463E-02 2.590805664E+02 0.000000000E+00 2.669804077E+02 -1.000000000E+00 -9.990000000E+02 0.000000000E+00 -9.990000000E+02
5.260180831E-01 9.143999815E-01 -2.587223612E-02 8.446988463E-02 2.590805664E+02 0.000000000E+00 2.669804077E+02 -1.000000000E+00 -9.990000000E+02 0.000000000E+00 -9.990000000E+02
5.234947801E-01 9.143999815E-01 -2.534301579E-02 8.021301031E-02 2.609013977E+02 0.000000000E+00 2.669779053E+02 -1.000000000E+00 -9.990000000E+02 0.000000000E+00 -9.990000000E+02
5.234947801E-01 9.143999815E-01 -2.534301206E-02 8.021301031E-02 2.609013977E+02 0.000000000E+00 2.669779053E+02 -1.000000000E+00 -9.990000000E+02 0.000000000E+00 -9.990000000E+02
5.209710598E-01 9.143999815E-01 -2.481572516E-02 7.583172619E-02 2.630181580E+02 0.000000000E+00 2.669753723E+02 -1.000000000E+00 -9.990000000E+02 0.000000000E+00 -9.990000000E+02
5.209710598E-01 9.143999815E-01 -2.481572144E-02 7.583172619E-02 2.630181885E+02 0.000000000E+00 2.669753723E+02 -1.000000000E+00 -9.990000000E+02 0.000000000E+00 -9.990000000E+02
5.184469223E-01 9.143999815E-01 -2.429043129E-02 7.141842693E-02 2.651981812E+02 0.000000000E+00 2.669728088E+02 -1.000000000E+00 -9.990000000E+02 0.000000000E+00 -9.990000000E+02
5.184469223E-01 9.143999815E-01 -2.429042757E-02 7.141842693E-02 2.651982117E+02 0.000000000E+00 2.669728088E+02 -1.000000000E+00 -9.990000000E+02 0.000000000E+00 -9.990000000E+02
5.159224272E-01 9.143999815E-01 -2.376710065E-02 6.695215404E-02 2.673785706E+02 0.000000000E+00 2.669702148E+02 -1.000000000E+00 -9.990000000E+02 0.000000000E+00 -9.990000000E+02
5.159224272E-01 9.143999815E-01 -2.376709692E-02 6.695215404E-02 2.673786011E+02 0.000000000E+00 2.669702148E+02 -1.000000000E+00 -9.990000000E+02 0.000000000E+00 -9.990000000E+02
5.133975148E-01 9.143999815E-01 -2.324569784E-02 6.245139614E-02 2.695630493E+02 0.000000000E+00 2.669675903E+02 -1.000000000E+00 -9.990000000E+02 0.000000000E+00 -9.990000000E+02
5.133975148E-01 9.143999815E-01 -2.324569412E-02 6.245139614E-02 2.695630798E+02 0.000000000E+00 2.669675903E+02 -1.000000000E+00 -9.990000000E+02 0.000000000E+00 -9.990000000E+02
5.108721852E-01 9.143999815E-01 -2.272613905E-02 5.793093145E-02 2.717667542E+02 0.000000000E+00 2.669649658E+02 -1.000000000E+00 -9.990000000E+02 0.000000000E+00 -9.990000000E+02
5.108721852E-01 9.143999815E-01 -2.272613533E-02 5.793093145E-02 2.717667847E+02 0.000000000E+00 2.669649658E+02 -1.000000000E+00 -9.990000000E+02 0.000000000E+00 -9.990000000E+02
5.083464384E-01 9.143999815E-01 -2.220859565E-02 5.335134268E-02 2.740041504E+02 0.000000000E+00 2.669622803E+02 -1.000000000E+00 -9.990000000E+02 0.000000000E+00 -9.990000000E+02
5.083464384E-01 9.143999815E-01 -2.220859192E-02 5.335134268E-02 2.740041809E+02 0.000000000E+00 2.669622803E+02 -1.000000000E+00 -9.990000000E+02 0.000000000E+00 -9.990000000E+02
5.058203936E-01 9.143999815E-01 -2.169285528E-02 4.871386290E-02 2.762867432E+02 0.000000000E+00 2.669595947E+02 -1.000000000E+00 -9.990000000E+02 0.000000000E+00 -9.990000000E+02
5.058203936E-01 9.143999815E-01 -2.169285156E-02 4.871386290E-02 2.762867737E+02 0.000000000E+00 2.669595947E+02 -1.000000000E+00 -9.990000000E+02 0.000000000E+00 -9.990000000E+02
5.032938719E-01 9.143999815E-01 -2.117901295E-02 4.411087185E-02 2.786148071E+02 0.000000000E+00 2.669569092E+02 -1.000000000E+00 -9.990000000E+02 0.000000000E+00 -9.990000000E+02
5.032938719E-01 9.143999815E-01 -2.117900923E-02 4.411087185E-02 2.786148376E+02 0.000000000E+00 2.669569092E+02 -1.000000000E+00 -9.990000000E+02 0.000000000E+00 -9.990000000E+02
5.007670522E-01 9.143999815E-01 -2.066695131E-02 3.955222294E-02 2.809765015E+02 0.000000000E+00 2.669542542E+02 -1.000000000E+00 -9.990000000E+02 0.000000000E+00 -9.990000000E+02
5.007670522E-01 9.143999815E-01 -2.066694759E-02 3.955222294E-02 2.809765320E+02 0.000000000E+00 2.669542542E+02 -1.000000000E+00 -9.990000000E+02 0.000000000E+00 -9.990000000E+02
4.982398450E-01 9.143999815E-01 -2.015683055E-02 3.496401384E-02 2.833473816E+02 0.000000000E+00 2.669515686E+02 -1.000000000E+00 -9.990000000E+02 0.000000000E+00 -9.990000000E+02
4.982398152E-01 9.143999815E-01 -2.015682682E-02 3.496401384E-02 2.833474121E+02 0.000000000E+00 2.669515686E+02 -1.000000000E+00 -9.990000000E+02 0.000000000E+00 -9.990000000E+02
4.957122803E-01 9.143999815E-01 -1.964846440E-02 3.034993634E-02 2.857042542E+02 0.000000000E+00 2.669488831E+02 -1.000000000E+00 -9.990000000E+02 0.000000000E+00 -9.990000000E+02
4.957122505E-01 9.143999815E-01 -1.964846067E-02 3.034993634E-02 2.857042847E+02 0.000000000E+00 2.669488831E+02 -1.000000000E+00 -9.990000000E+02 0.000000000E+00 -9.990000000E+02
4.931842983E-01 9.143999815E-01 -1.914197952E-02 2.575926110E-02 2.880148010E+02 0.000000000E+00 2.669462280E+02 -1.000000000E+00 -9.990000000E+02 0.000000000E+00 -9.990000000E+02
4.931842685E-01 9.143999815E-01 -1.914197579E-02 2.575926110E-02 2.880148315E+02 0.000000000E+00 2.669462280E+02 -1.000000000E+00 -9.990000000E+02 0.000000000E+00 -9.990000000E+02
4.906559885E-01 9.143999815E-01 -1.863726415E-02 2.119814977E-02 2.902378845E+02 0.000000000E+00 2.669435425E+02 -1.000000000E+00 -9.990000000E+02 0.000000000E+00 -9.990000000E+02
4.906559587E-01 9.143999815E-01 -1.863726042E-02 2.119814977E-02 2.902379150E+02 0.000000000E+00 2.669435425E+02 -1.000000000E+00 -9.990000000E+02 0.000000000E+00 -9.990000000E+02
4.881273210E-01 9.143999815E-01 -1.813430339E-02 1.664935425E-02 2.923565063E+02 0.000000000E+00 2.669409180E+02 -1.000000000E+00 -9.990000000E+02 0.000000000E+00 -9.990000000E+02
4.881272912E-01 9.143999815E-01 -1.813429967E-02 1.664935425E-02 2.923565063E+02 0.000000000E+00 2.669409180E+02 -1.000000000E+00 -9.990000000E+02 0.000000000E+00 -9.990000000E+02
4.855982959E-01 9.143999815E-01 -1.763311587E-02 1.210794877E-02 2.943735352E+02 0.000000000E+00 2.669382324E+02 -1.000000000E+00 -9.990000000E+02 0.000000000E+00 -9.990000000E+02
4.855982661E-01 9.143999815E-01 -1.763311215E-02 1.210794877E-02 2.943735352E+02 0.000000000E+00 2.669382324E+02 -1.000000000E+00 -9.990000000E+02 0.000000000E+00 -9.990000000E+02
4.830689430E-01 9.143999815E-01 -1.713372953E-02 7.570239715E-03 2.963269653E+02 0.000000000E+00 2.669356079E+02 -1.000000000E+00 -9.990000000E+02 0.000000000E+00 -9.990000000E+02
4.830689132E-01 9.143999815E-01 -1.713372581E-02 7.570239715E-03 2.963269653E+02 0.000000000E+00 2.669356079E+02 -1.000000000E+00 -9.990000000E+02 0.000000000E+00 -9.990000000E+02
4.805392027E-01 9.143999815E-01 -1.663607545E-02 3.032530192E-03 2.983657227E+02 0.000000000E+00 2.669329529E+02 -1.000000000E+00 -9.990000000E+02 0.000000000E+00 -9.990000000E+02
4.805391729E-01 9.143999815E-01 -1.663607173E-02 3.032530192E-03 2.983657227E+02 0.000000000E+00 2.669329529E+02 -1.000000000E+00 -9.990000000E+02 0.000000000E+00 -9.990000000E+02
4.780091643E-01 9.143999815E-01 -1.614014991E-02 -1.521192025E-03 3.007544556E+02 0.000000000E+00 2.669302979E+02 -1.000000000E+00 -9.990000000E+02 0.000000000E+00 -9.990000000E+02
4.780091345E-01 9.143999815E-01 -1.614014618E-02 -1.521192025E-03 3.007544861E+02 0.000000000E+00 2.669302979E+02 -1.000000000E+00 -9.990000000E+02 0.000000000E+00 -9.990000000E+02
4.754787683E-01 9.143999815E-01 -1.564594172E-02 -6.092158146E-03 3.035009766E+02 0.000000000E+00 2.669276123E+02 -1.000000000E+00 -9.990000000E+02 0.000000000E+00 -9.990000000E+02
4.754787385E-01 9.143999815E-01 -1.564593799E-02 -6.092158146E-03 3.035010071E+02 0.000000000E+00 2.669276123E+02 -1.000000000E+00 -9.990000000E+02 0.000000000E+00 -9.990000000E+02
4.729480445E-01 9.143999815E-01 -1.515344717E-02 -1.068160031E-02 3.061586609E+02 0.000000000E+00 2.669249268E+02 -1.000000000E+00 -9.990000000E+02 0.000000000E+00 -9.990000000E+02
4.729480147E-01 9.143999815E-01 -1.515344344E-02 -1.068160031E-02 3.061586914E+02 0.000000000E+00 2.669249268E+02 -1.000000000E+00 -9.990000000E+02 0.000000000E+00 -9.990000000E+02
4.704169929E-01 9.143999815E-01 -1.466265228E-02 -1.531784888E-02 3.083833008E+02 0.000000000E+00 2.669222107E+02 -1.000000000E+00 -9.990000000E+02 0.000000000E+00 -9.990000000E+02
4.704169631E-01 9.143999815E-01 -1.466264855E-02 -1.531784888E-02 3.083833313E+02 0.000000000E+00 2.669222107E+02 -1.000000000E+00 -9.990000000E+02 0.000000000E+00 -9.990000000E+02
4.678856134E-01 9.143999815E-01 -1.417353470E-02 -1.995779201E-02 3.101266174E+02 0.000000000E+00 2.669194946E+02 -1.000000000E+00 -9.990000000E+02 0.000000000E+00 -9.990000000E+02
4.678855836E-01 9.143999815E-01 -1.417353097E-02 -1.995779201E-02 3.101266174E+02 0.000000000E+00 2.669194946E+02 -1.000000000E+00 -9.990000000E+02 0.000000000E+00 -9.990000000E+02
4.653538764E-01 9.143999815E-01 -1.368615218E-02 -2.452383190E-02 3.114980774E+02 0.000000000E+00 2.669168396E+02 -1.000000000E+00 -9.990000000E+02 0.000000000E+00 -9.990000000E+02
4.653538465E-01 9.143999815E-01 -1.368614845E-02 -2.452383190E-02 3.114980774E+02 0.000000000E+00 2.669168396E+02 -1.000000000E+00 -9.990000000E+02 0.000000000E+00 -9.990000000E+02
4.628218412E-01 9.143999815E-01 -1.320043392E-02 -2.906277403E-02 3.129887695E+02 0.000000000E+00 2.669141846E+02 -1.000000000E+00 -9.990000000E+02 0.000000000E+00 -9.990000000E+02
4.628218114E-01 9.143999815E-01 -1.320043020E-02 -2.906277403E-02 3.129887695E+02 0.000000000E+00 2.669141846E+02 -1.000000000E+00 -9.990000000E+02 0.000000000E+00 -9.990000000E+02
4.602895081E-01 9.143999815E-01 -1.271638833E-02 -3.365098312E-02 3.150409241E+02 0.000000000E+00 2.669114990E+02 -1.000000000E+00 -9.990000000E+02 0.000000000E+00 -9.990000000E+02
4.602894783E-01 9.143999815E-01 -1.271638460E-02 -3.365098312E-02 3.150409241E+02 0.000000000E+00 2.669114990E+02 -1.000000000E+00 -9.990000000E+02 0.000000000E+00 -9.990000000E+02
4.577568471E-01 9.143999815E-01 -1.223395951E-02 -3.826998919E-02 3.174162292E+02 0.000000000E+00 2.669088135E+02 -1.000000000E+00 -9.990000000E+02 0.000000000E+00 -9.990000000E+02
4.577568173E-01 9.143999815E-01 -1.223395579E-02 -3.826998919E-02 3.174162292E+02 0.000000000E+00 2.669088135E+02 -1.000000000E+00 -9.990000000E+02 0.000000000E+00 -9.990000000E+02
4.552238584E-01 9.143999815E-01 -1.175316889E-02 -4.288899153E-02 3.196685181E+02 0.000000000E+00 2.669060974E+02 -1.000000000E+00 -9.990000000E+02 0.000000000E+00 -9.990000000E+02
4.552238286E-01 9.143999815E-01 -1.175316516E-02 -4.288899153E-02 3.196685181E+02 0.000000000E+00 2.669060974E+02 -1.000000000E+00 -9.990000000E+02 0.000000000E+00 -9.990000000E+02
4.526905417E-01 9.143999815E-01 -1.127410959E-02 -4.746118933E-02 3.216793518E+02 0.000000000E+00 2.669034424E+02 -1.000000000E+00 -9.990000000E+02 0.000000000E+00 -9.990000000E+02
4.526905119E-01 9.143999815E-01 -1.127410587E-02 -4.746118933E-02 3.216793518E+02 0.000000000E+00 2.669034424E+02 -1.000000000E+00 -9.990000000E+02 0.000000000E+00 -9.990000000E+02
4.501569569E-01 9.143999815E-01 -1.079664659E-02 -5.199397355E-02 3.235387573E+02 0.000000000E+00 2.669007568E+02 -1.000000000E+00 -9.990000000E+02 0.000000000E+00 -9.990000000E+02
4.501569271E-01 9.143999815E-01 -1.079664286E-02 -5.199397355E-02 3.235387573E+02 0.000000000E+00 2.669007568E+02 -1.000000000E+00 -9.990000000E+02 0.000000000E+00 -9.990000000E+02
4.476230443E-01 9.143999815E-01 -1.032076683E-02 -5.654153600E-02 3.253643799E+02 0.000000000E+00 2.668981018E+02 -1.000000000E+00 -9.990000000E+02 0.000000000E+00 -9.990000000E+02
4.476230145E-01 9.143999815E-01 -1.032076310E-02 -5.654153600E-02 3.253643799E+02 0.000000000E+00 2.668981018E+02 -1.000000000E+00 -9.990000000E+02 0.000000000E+00 -9.990000000E+02
4.450888336E-01 9.143999815E-01 -9.846596979E-03 -6.107801199E-02 3.271646729E+02 0.000000000E+00 2.668954468E+02 -1.000000000E+00 -9.990000000E+02 0.000000000E+00 -9.990000000E+02
4.450888038E-01 9.143999815E-01 -9.846593253E-03 -6.107801199E-02 3.271646729E+02 0.000000000E+00 2.668954468E+02 -1.000000000E+00 -9.990000000E+02 0.000000000E+00 -9.990000000E+02
4.425542951E-01 9.143999815E-01 -9.374016896E-03 -6.559108943E-02 3.289041138E+02 0.000000000E+00 2.668928223E+02 -1.000000000E+00 -9.990000000E+02 0.000000000E+00 -9.990000000E+02
4.425542653E-01 9.143999815E-01 -9.374013171E-03 -6.559108943E-02 3.289041138E+02 0.000000000E+00 2.668928223E+02 -1.000000000E+00 -9.990000000E+02 0.000000000E+00 -9.990000000E+02
4.400194883E-01 9.143999815E-01 -8.902996778E-03 -7.010170072E-02 3.305998230E+02 0.000000000E+00 2.668901672E+02 -1.000000000E+00 -9.990000000E+02 0.000000000E+00 -9.990000000E+02
4.400194585E-01 9.143999815E-01 -8.902993053E-03 -7.010170072E-02 3.305998230E+02 0.000000000E+00 2.668901672E+02 -1.000000000E+00 -9.990000000E+02 0.000000000E+00 -9.990000000E+02
4.374843538E-01 9.143999815E-01 -8.433709852E-03 -7.461600751E-02 3.322594604E+02 0.000000000E+00 2.668875122E+02 -1.000000000E+00 -9.990000000E+02 0.000000000E+00 -9.990000000E+02
4.374843240E-01 9.143999815E-01 -8.433706127E-03 -7.461600751E-02 3.322594604E+02 0.000000000E+00 2.668875122E+02 -1.000000000E+00 -9.990000000E+02 0.000000000E+00 -9.990000000E+02
4.349489510E-01 9.143999815E-01 -7.965944707E-03 -7.913646847E-02 3.338827209E+02 0.000000000E+00 2.668848877E+02 -1.000000000E+00 -9.990000000E+02 0.000000000E+00 -9.990000000E+02
4.349489212E-01 9.143999815E-01 -7.965940982E-03 -7.913646847E-02 3.338827209E+02 0.000000000E+00 2.668848877E+02 -1.000000000E+00 -9.990000000E+02 0.000000000E+00 -9.990000000E+02
4.324132204E-01 9.143999815E-01 -7.499831729E-03 -8.366063237E-02 3.354732666E+02 0.000000000E+00 2.668822021E+02 -1.000000000E+00 -9.990000000E+02 0.000000000E+00 -9.990000000E+02
4.324131906E-01 9.143999815E-01 -7.499828469E-03 -8.366063237E-02 3.354732666E+02 0.000000000E+00 2.668822021E+02 -1.000000000E+00 -9.990000000E+02 0.000000000E+00 -9.990000000E+02
4.298772216E-01 9.143999815E-01 -7.035299204E-03 -8.818479627E-02 3.370312195E+02 0.000000000E+00 2.668795776E+02 -1.000000000E+00 -9.990000000E+02 0.000000000E+00 -9.990000000E+02
4.298771918E-01 9.143999815E-01 -7.035295945E-03 -8.818479627E-02 3.370312195E+02 0.000000000E+00 2.668795776E+02 -1.000000000E+00 -9.990000000E+02 0.000000000E+00 -9.990000000E+02
4.273409247E-01 9.143999815E-01 -6.572367158E-03 -9.269910306E-02 3.385447998E+02 0.000000000E+00 2.668769226E+02 -1.000000000E+00 -9.990000000E+02 0.000000000E+00 -9.990000000E+02
4.273408949E-01 9.143999815E-01 -6.572363898E-03 -9.269910306E-02 3.385447998E+02 0.000000000E+00 2.668769226E+02 -1.000000000E+00 -9.990000000E+02 0.000000000E+00 -9.990000000E+02
4.248043299E-01 9.143999815E-01 -6.111073308E-03 -9.719862789E-02 3.399988708E+02 0.000000000E+00 2.668742676E+02 -1.000000000E+00 -9.990000000E+02 0.000000000E+00 -9.990000000E+02
4.248043001E-01 9.143999815E-01 -6.111070048E-03 -9.719862789E-02 3.399988708E+02 0.000000000E+00 2.668742676E+02 -1.000000000E+00 -9.990000000E+02 0.000000000E+00 -9.990000000E+02
4.222674370E-01 9.143999815E-01 -5.651320331E-03 -1.016772091E-01 3.413942566E+02 0.000000000E+00 2.668716431E+02 -1.000000000E+00 -9.990000000E+02 0.000000000E+00 -9.990000000E+02
4.222674072E-01 9.143999815E-01 -5.651317071E-03 -1.016772091E-01 3.413942566E+02 0.000000000E+00 2.668716431E+02 -1.000000000E+00 -9.990000000E+02 0.000000000E+00 -9.990000000E+02
4.197302759E-01 9.143999815E-01 -5.193241872E-03 -1.061287001E-01 3.427578430E+02 0.000000000E+00 2.668690491E+02 -1.000000000E+00 -9.990000000E+02 0.000000000E+00 -9.990000000E+02
4.197302461E-01 9.143999815E-01 -5.193238612E-03 -1.061287001E-01 3.427578430E+02 0.000000000E+00 2.668690491E+02 -1.000000000E+00 -9.990000000E+02 0.000000000E+00 -9.990000000E+02
4.171928167E-01 9.143999815E-01 -4.736695439E-03 -1.105666384E-01 3.440899658E+02 0.000000000E+00 2.668664551E+02 -1.000000000E+00 -9.990000000E+02 0.000000000E+00 -9.990000000E+02
4.171927869E-01 9.143999815E-01 -4.736692179E-03 -1.105666384E-01 3.440899658E+02 0.000000000E+00 2.668664551E+02 -1.000000000E+00 -9.990000000E+02 0.000000000E+00 -9.990000000E+02
4.146550596E-01 9.143999815E-01 -4.281803034E-03 -1.150464565E-01 3.454413147E+02 0.000000000E+00 2.668638000E+02 -1.000000000E+00 -9.990000000E+02 0.000000000E+00 -9.990000000E+02
4.146550298E-01 9.143999815E-01 -4.281799775E-03 -1.150464565E-01 3.454413147E+02 0.000000000E+00 2.668638000E+02 -1.000000000E+00 -9.990000000E+02 0.000000000E+00 -9.990000000E+02
4.121170342E-01 9.143999815E-01 -3.828475019E-03 -1.195743158E-01 3.469446411E+02 0.000000000E+00 2.668611450E+02 -1.000000000E+00 -9.990000000E+02 0.000000000E+00 -9.990000000E+02
4.121170044E-01 9.143999815E-01 -3.828471759E-03 -1.195743158E-01 3.469446411E+02 0.000000000E+00 2.668611450E+02 -1.000000000E+00 -9.990000000E+02 0.000000000E+00 -9.990000000E+02
4.095786810E-01 9.143999815E-01 -3.376783803E-03 -1.240393519E-01 3.485552063E+02 0.000000000E+00 2.668585205E+02 -1.000000000E+00 -9.990000000E+02 0.000000000E+00 -9.990000000E+02
4.095786512E-01 9.143999815E-01 -3.376780543E-03 -1.240393519E-01 3.485552063E+02 0.000000000E+00 2.668585205E+02 -1.000000000E+00 -9.990000000E+02 0.000000000E+00 -9.990000000E+02
4.070400894E-01 9.143999815E-01 -2.926689573E-03 -1.284427941E-01 3.501305847E+02 0.000000000E+00 2.668559265E+02 -1.000000000E+00 -9.990000000E+02 0.000000000E+00 -9.990000000E+02
4.070400596E-01 9.143999815E-01 -2.926686313E-03 -1.284427941E-01 3.501305847E+02 0.000000000E+00 2.668559265E+02 -1.000000000E+00 -9.990000000E+02 0.000000000E+00 -9.990000000E+02
4.045011997E-01 9.143999815E-01 -2.478146460E-03 -1.328154504E-01 3.515431519E+02 0.000000000E+00 2.668533630E+02 -1.000000000E+00 -9.990000000E+02 0.000000000E+00 -9.990000000E+02
4.045011699E-01 9.143999815E-01 -2.478143200E-03 -1.328154504E-01 3.515431519E+02 0.000000000E+00 2.668533630E+02 -1.000000000E+00 -9.990000000E+02 0.000000000E+00 -9.990000000E+02
4.019620121E-01 9.143999815E-01 -2.031329321E-03 -1.371018887E-01 3.526700745E+02 0.000000000E+00 2.668508301E+02 -1.000000000E+00 -9.990000000E+02 0.000000000E+00 -9.990000000E+02
4.019619823E-01 9.143999815E-01 -2.031326061E-03 -1.371018887E-01 3.526700745E+02 0.000000000E+00 2.668508301E+02 -1.000000000E+00 -9.990000000E+02 0.000000000E+00 -9.990000000E+02
3.994225562E-01 9.143999815E-01 -1.585983438E-03 -1.413784772E-01 3.536286011E+02 0.000000000E+00 2.668483276E+02 -1.000000000E+00 -9.990000000E+02 0.000000000E+00 -9.990000000E+02
3.994225264E-01 9.143999815E-01 -1.585980179E-03 -1.413784772E-01 3.536286011E+02 0.000000000E+00 2.668483276E+02 -1.000000000E+00 -9.990000000E+02 0.000000000E+00 -9.990000000E+02
3.968828022E-01 9.143999815E-01 -1.142410561E-03 -1.457338929E-01 3.546789551E+02 0.000000000E+00 2.668457642E+02 -1.000000000E+00 -9.990000000E+02 0.000000000E+00 -9.990000000E+02
3.968827724E-01 9.143999815E-01 -1.142407302E-03 -1.457338929E-01 3.546789551E+02 0.000000000E+00 2.668457642E+02 -1.000000000E+00 -9.990000000E+02 0.000000000E+00 -9.990000000E+02
3.943427801E-01 9.143999815E-01 -7.003724459E-04 -1.500917673E-01 3.559211121E+02 0.000000000E+00 2.668432007E+02 -1.000000000E+00 -9.990000000E+02 0.000000000E+00 -9.990000000E+02
3.943427503E-01 9.143999815E-01 -7.003692444E-04 -1.500917673E-01 3.559211121E+02 0.000000000E+00 2.668432007E+02 -1.000000000E+00 -9.990000000E+02 0.000000000E+00 -9.990000000E+02
3.918024898E-01 9.143999815E-01 -2.599571890E-04 -1.544102281E-01 3.572683105E+02 0.000000000E+00 2.668406677E+02 -1.000000000E+00 -9.990000000E+02 0.000000000E+00 -9.990000000E+02
3.918024600E-01 9.143999815E-01 -2.599539876E-04 -1.544102281E-01 3.572683105E+02 0.000000000E+00 2.668406677E+02 -1.000000000E+00 -9.990000000E+02 0.000000000E+00 -9.990000000E+02
3.892618716E-01 9.143999815E-01 1.787438232E-04 -1.587631702E-01 3.586516113E+02 0.000000000E+00 2.668381042E+02 -1.000000000E+00 -9.990000000E+02 0.000000000E+00 -9.990000000E+02
3.892618418E-01 9.143999815E-01 1.787470246E-04 -1.587631702E-01 3.586516113E+02 0.000000000E+00 2.668381042E+02 -1.000000000E+00 -9.990000000E+02 0.000000000E+00 -9.990000000E+02
3.867210150E-01 9.143999815E-01 6.159219192E-04 -1.631247401E-01 3.600639648E+02 0.000000000E+00 2.668355408E+02 -1.000000000E+00 -9.990000000E+02 0.000000000E+00 -9.990000000E+02
3.867209852E-01 9.143999815E-01 6.159251207E-04 -1.631247401E-01 3.600639648E+02 0.000000000E+00 2.668355408E+02 -1.000000000E+00 -9.990000000E+02 0.000000000E+00 -9.990000000E+02
3.841798306E-01 9.143999815E-01 1.051343977E-03 -1.674813926E-01 3.614794922E+02 0.000000000E+00 2.668329773E+02 -1.000000000E+00 -9.990000000E+02 0.000000000E+00 -9.990000000E+02
3.841798007E-01 9.143999815E-01 1.051347121E-03 -1.674813926E-01 3.614794922E+02 0.000000000E+00 2.668329773E+02 -1.000000000E+00 -9.990000000E+02 0.000000000E+00 -9.990000000E+02
3.816384077E-01 9.143999815E-01 1.485136803E-03 -1.718910038E-01 3.628994751E+02 0.000000000E+00 2.668303833E+02 -1.000000000E+00 -9.990000000E+02 0.000000000E+00 -9.990000000E+02
3.816383779E-01 9.143999815E-01 1.485139946E-03 -1.718910038E-01 3.628994751E+02 0.000000000E+00 2.668303833E+02 -1.000000000E+00 -9.990000000E+02 0.000000000E+00 -9.990000000E+02
3.790966868E-01 9.143999815E-01 1.917375368E-03 -1.762735099E-01 3.642819214E+02 0.000000000E+00 2.668277893E+02 -1.000000000E+00 -9.990000000E+02 0.000000000E+00 -9.990000000E+02
3.790966570E-01 9.143999815E-01 1.917378511E-03 -1.762735099E-01 3.642819214E+02 0.000000000E+00 2.668277893E+02 -1.000000000E+00 -9.990000000E+02 0.000000000E+00 -9.990000000E+02
3.765546679E-01 9.143999815E-01 2.347750124E-03 -1.806067526E-01 3.655857544E+02 0.000000000E+00 2.668252258E+02 -1.000000000E+00 -9.990000000E+02 0.000000000E+00 -9.990000000E+02
3.765546381E-01 9.143999815E-01 2.347753150E-03 -1.806067526E-01 3.655857544E+02 0.000000000E+00 2.668252258E+02 -1.000000000E+00 -9.990000000E+02 0.000000000E+00 -9.990000000E+02
3.740123510E-01 9.143999815E-01 2.776533365E-03 -1.849794090E-01 3.669033203E+02 0.000000000E+00 2.668226318E+02 -1.000000000E+00 -9.990000000E+02 0.000000000E+00 -9.990000000E+02
3.740123212E-01 9.143999815E-01 2.776536392E-03 -1.849794090E-01 3.669033203E+02 0.000000000E+00 2.668226318E+02 -1.000000000E+00 -9.990000000E+02 0.000000000E+00 -9.990000000E+02
3.714697957E-01 9.143999815E-01 3.203731962E-03 -1.893705428E-01 3.683035278E+02 0.000000000E+00 2.668200684E+02 -1.000000000E+00 -9.990000000E+02 0.000000000E+00 -9.990000000E+02
3.714697659E-01 9.143999815E-01 3.203734988E-03 -1.893705428E-01 3.683035278E+02 0.000000000E+00 2.668200684E+02 -1.000000000E+00 -9.990000000E+02 0.000000000E+00 -9.990000000E+02
3.689269125E-01 9.143999815E-01 3.629022976E-03 -1.936853081E-01 3.696923828E+02 0.000000000E+00 2.668175354E+02 -1.000000000E+00 -9.990000000E+02 0.000000000E+00 -9.990000000E+02
3.689268827E-01 9.143999815E-01 3.629026003E-03 -1.936853081E-01 3.696923828E+02 0.000000000E+00 2.668175354E+02 -1.000000000E+00 -9.990000000E+02 0.000000000E+00 -9.990000000E+02
3.663837612E-01 9.143999815E-01 4.052697681E-03 -1.979434192E-01 3.710198059E+02 0.000000000E+00 2.668150024E+02 -1.000000000E+00 -9.990000000E+02 0.000000000E+00 -9.990000000E+02
3.663837314E-01 9.143999815E-01 4.052700941E-03 -1.979434192E-01 3.710198059E+02 0.000000000E+00 2.668150024E+02 -1.000000000E+00 -9.990000000E+02 0.000000000E+00 -9.990000000E+02
3.638403416E-01 9.143999815E-01 4.474746529E-03 -2.022113800E-01 3.723216858E+02 0.000000000E+00 2.668125000E+02 -1.000000000E+00 -9.990000000E+02 0.000000000E+00 -9.990000000E+02
3.638403118E-01 9.143999815E-01 4.474749789E-03 -2.022113800E-01 3.723216858E+02 0.000000000E+00 2.668125000E+02 -1.000000000E+00 -9.990000000E+02 0.000000000E+00 -9.990000000E+02
3.612965941E-01 9.143999815E-01 4.894873593E-03 -2.064904124E-01 3.736152344E+02 0.000000000E+00 2.668099670E+02 -1.000000000E+00 -9.990000000E+02 0.000000000E+00 -9.990000000E+02
3.612965643E-01 9.143999815E-01 4.894876853E-03 -2.064904124E-01 3.736152344E+02 0.000000000E+00 2.668099670E+02 -1.000000000E+00 -9.990000000E+02 0.000000000E+00 -9.990000000E+02
3.587525785E-01 9.143999815E-01 5.313317291E-03 -2.108224332E-01 3.750007935E+02 0.000000000E+00 2.668074341E+02 -1.000000000E+00 -9.990000000E+02 0.000000000E+00 -9.990000000E+02
3.587525487E-01 9.143999815E-01 5.313320551E-03 -2.108224332E-01 3.750007935E+02 0.000000000E+00 2.668074341E+02 -1.000000000E+00 -9.990000000E+02 0.000000000E+00 -9.990000000E+02
3.562082946E-01 9.143999815E-01 5.730123725E-03 -2.151950896E-01 3.765617676E+02 0.000000000E+00 2.668048401E+02 -1.000000000E+00 -9.990000000E+02 0.000000000E+00 -9.990000000E+02
3.562082648E-01 9.143999815E-01 5.730126984E-03 -2.151950896E-01 3.765617676E+02 0.000000000E+00 2.668048401E+02 -1.000000000E+00 -9.990000000E+02 0.000000000E+00 -9.990000000E+02
3.536637127E-01 9.143999815E-01 6.145041902E-03 -2.195665091E-01 3.782858276E+02 0.000000000E+00 2.668022461E+02 -1.000000000E+00 -9.990000000E+02 0.000000000E+00 -9.990000000E+02
3.536636829E-01 9.143999815E-01 6.145044696E-03 -2.195665091E-01 3.782858276E+02 0.000000000E+00 2.668022461E+02 -1.000000000E+00 -9.990000000E+02 0.000000000E+00 -9.990000000E+02
3.511188328E-01 9.143999815E-01 6.558203604E-03 -2.239428610E-01 3.801445618E+02 0.000000000E+00 2.667996826E+02 -1.000000000E+00 -9.990000000E+02 0.000000000E+00 -9.990000000E+02
3.511188030E-01 9.143999815E-01 6.558206398E-03 -2.239428610E-01 3.801445618E+02 0.000000000E+00 2.667996826E+02 -1.000000000E+00 -9.990000000E+02 0.000000000E+00 -9.990000000E+02
3.485736251E-01 9.143999815E-01 6.969499402E-03 -2.283216864E-01 3.820882263E+02 0.000000000E+00 2.667970886E+02 -1.000000000E+00 -9.990000000E+02 0.000000000E+00 -9.990000000E+02
3.485735953E-01 9.143999815E-01 6.969502196E-03 -2.283216864E-01 3.820882263E+02 0.000000000E+00 2.667970886E+02 -1.000000000E+00 -9.990000000E+02 0.000000000E+00 -9.990000000E+02