#++++++++++++++++++++++++++++++++++++++++++++++++++++++++++++++++++++++++++++++++++++++++++++++++++++++++++++++++++++
#
#   IPW-3 Ice Shape DATA SUBMITTAL FORM for Test Case NACA0012_AE3932, May 18th 2026
#
#       NOMENCLATURE:
#             X_ICED [m]:  X-coordinate of the iced surface
#             Y_ICED [m]:  Y-coordinate of the iced surface
#             Z_ICED [m]:  Z-coordinate of the iced surface
#
#                XXmm:  Roughness height used for the case, in mm.
#                       In the zone name, use the format KS_XXmm.
#                       For example, if k_s = 1.5 mm, use KS_1p5mm. 
#                       For Variable roughness, use KS_VAR
#
#    FLOW CONDITIONS:
#                                   AOA: 4.0 deg
#                           Mach Number: 0.3151 [-]
#       Mean aerodynamic chord (M.A.C.): 0.5334 [m]
#                       Reynolds Number: 3.9795 million (based on MAC)
#                       Freestream Temp: 267.55 [K]
#                        Reference area: 0.97548 [m2]
#               Moment Reference Center: 0.13335, 0, 0 [m] (X, Y, Z)
#
#    ICING CONDITIONS:
#                           Icing Time: 420 [s]
#                                  LWC: 0.55 [g/m3]
#                                  MVD: 20 [μm]
#
#              NOTES: 1. Please use at least 5 decimal places in the numerical values
#                     2. If data are NOT provided, please fill data fields with a numerical value of "-999" 
#
#++++++++++++++++++++++++++++++++++++++++++++++++++++++++++++++++++++++++++++++++++++++++++++++++++++++++++++++++++++

AUXDATA NUM_LAYERS  = "insert the number of total ice layers"
                                              
VARIABLES = "X_ICED" "Y_ICED" "Z_ICED"

ZONE T="SLICE_Y_0p9144_BINS01_KS_1mm_SINGLE_LAYER"
5.322920680E-01 9.143999815E-01 -2.725407481E-02
5.316609144E-01 9.143999815E-01 -2.706354484E-02
5.316609144E-01 9.143999815E-01 -2.706354484E-02
5.304682255E-01 9.143999815E-01 -2.681101114E-02
5.304682255E-01 9.143999815E-01 -2.681101114E-02
5.285598040E-01 9.143999815E-01 -2.640798129E-02
5.285598040E-01 9.143999815E-01 -2.640797943E-02
5.255056620E-01 9.143999815E-01 -2.576579712E-02
5.255056620E-01 9.143999815E-01 -2.576579526E-02
5.206177235E-01 9.143999815E-01 -2.474503405E-02
5.206177235E-01 9.143999815E-01 -2.474503219E-02
5.137227774E-01 9.143999815E-01 -2.331744134E-02
5.137227774E-01 9.143999815E-01 -2.331743762E-02
5.057653189E-01 9.143999815E-01 -2.168666199E-02
5.057653189E-01 9.143999815E-01 -2.168665826E-02
4.976216257E-01 9.143999815E-01 -2.003724128E-02
4.976215959E-01 9.143999815E-01 -2.003723755E-02
4.894740880E-01 9.143999815E-01 -1.840675622E-02
4.894740582E-01 9.143999815E-01 -1.840675250E-02
4.813229144E-01 9.143999815E-01 -1.679474115E-02
4.813228846E-01 9.143999815E-01 -1.679473743E-02
4.731681645E-01 9.143999815E-01 -1.520078443E-02
4.731681347E-01 9.143999815E-01 -1.520078070E-02
4.650099277E-01 9.143999815E-01 -1.362455916E-02
4.650098979E-01 9.143999815E-01 -1.362455543E-02
4.568483531E-01 9.143999815E-01 -1.206576731E-02
4.568483233E-01 9.143999815E-01 -1.206576359E-02
4.486835301E-01 9.143999815E-01 -1.052413229E-02
4.486835003E-01 9.143999815E-01 -1.052412856E-02
4.405155480E-01 9.143999815E-01 -8.999429643E-03
4.405155182E-01 9.143999815E-01 -8.999425918E-03
4.323444068E-01 9.143999815E-01 -7.491513155E-03
4.323443770E-01 9.143999815E-01 -7.491509430E-03
4.241702259E-01 9.143999815E-01 -6.000301801E-03
4.241701961E-01 9.143999815E-01 -6.000298075E-03
4.159930646E-01 9.143999815E-01 -4.525743425E-03
4.159930348E-01 9.143999815E-01 -4.525739700E-03
4.078128636E-01 9.143999815E-01 -3.067825455E-03
4.078128338E-01 9.143999815E-01 -3.067821730E-03
3.996297121E-01 9.143999815E-01 -1.626631478E-03
3.996296823E-01 9.143999815E-01 -1.626627753E-03
3.914436400E-01 9.143999815E-01 -2.022914705E-04
3.914436102E-01 9.143999815E-01 -2.022878325E-04
3.832545877E-01 9.143999815E-01 1.205050503E-03
3.832545578E-01 9.143999815E-01 1.205054112E-03
3.750626147E-01 9.143999815E-01 2.595133148E-03
3.750625849E-01 9.143999815E-01 2.595136641E-03
3.668676615E-01 9.143999815E-01 3.967626952E-03
3.668676317E-01 9.143999815E-01 3.967630677E-03
3.586697280E-01 9.143999815E-01 5.322236102E-03
3.586696982E-01 9.143999815E-01 5.322239362E-03
3.504688144E-01 9.143999815E-01 6.658549886E-03
3.504687846E-01 9.143999815E-01 6.658553146E-03
3.422648609E-01 9.143999815E-01 7.976014167E-03
3.422648311E-01 9.143999815E-01 7.976017892E-03
3.340577781E-01 9.143999815E-01 9.274058975E-03
3.340577483E-01 9.143999815E-01 9.274062701E-03
3.258475959E-01 9.143999815E-01 1.055207383E-02
3.258475661E-01 9.143999815E-01 1.055207662E-02
3.176341653E-01 9.143999815E-01 1.180936303E-02
3.176341355E-01 9.143999815E-01 1.180936582E-02
3.094175160E-01 9.143999815E-01 1.304515544E-02
3.094174862E-01 9.143999815E-01 1.304515824E-02
3.011975288E-01 9.143999815E-01 1.425859425E-02
3.011974990E-01 9.143999815E-01 1.425859705E-02
2.929741442E-01 9.143999815E-01 1.544874068E-02
2.929741144E-01 9.143999815E-01 1.544874348E-02
2.847472429E-01 9.143999815E-01 1.661456749E-02
2.847472131E-01 9.143999815E-01 1.661457121E-02
2.765167952E-01 9.143999815E-01 1.775496453E-02
2.765167654E-01 9.143999815E-01 1.775496826E-02
2.682827115E-01 9.143999815E-01 1.886872202E-02
2.682826817E-01 9.143999815E-01 1.886872575E-02
2.600449026E-01 9.143999815E-01 1.995451376E-02
2.600448728E-01 9.143999815E-01 1.995451562E-02
2.518032491E-01 9.143999815E-01 2.101092041E-02
2.518032193E-01 9.143999815E-01 2.101092227E-02
2.435577065E-01 9.143999815E-01 2.203642018E-02
2.435576916E-01 9.143999815E-01 2.203642204E-02
2.353081852E-01 9.143999815E-01 2.302936278E-02
2.353081703E-01 9.143999815E-01 2.302936465E-02
2.270546108E-01 9.143999815E-01 2.398796566E-02
2.270545959E-01 9.143999815E-01 2.398796752E-02
2.187968940E-01 9.143999815E-01 2.491029911E-02
2.187968791E-01 9.143999815E-01 2.491030097E-02
2.105350047E-01 9.143999815E-01 2.579426579E-02
2.105349898E-01 9.143999815E-01 2.579426765E-02
2.022688836E-01 9.143999815E-01 2.663757838E-02
2.022688687E-01 9.143999815E-01 2.663758025E-02
1.939984709E-01 9.143999815E-01 2.743780799E-02
1.939984560E-01 9.143999815E-01 2.743780985E-02
1.857771128E-01 9.143999815E-01 2.818794362E-02
1.857770979E-01 9.143999815E-01 2.818794549E-02
1.777543277E-01 9.143999815E-01 2.887401916E-02
1.777543128E-01 9.143999815E-01 2.887402102E-02
1.700646430E-01 9.143999815E-01 2.948614582E-02
1.700646281E-01 9.143999815E-01 2.948614769E-02
1.627377719E-01 9.143999815E-01 3.002528287E-02
1.627377570E-01 9.143999815E-01 3.002528474E-02
1.557568312E-01 9.143999815E-01 3.049659915E-02
1.557568163E-01 9.143999815E-01 3.049660102E-02
1.491057128E-01 9.143999815E-01 3.090497293E-02
1.491056979E-01 9.143999815E-01 3.090497479E-02
1.427690238E-01 9.143999815E-01 3.125503287E-02
1.427690089E-01 9.143999815E-01 3.125503287E-02
1.367321461E-01 9.143999815E-01 3.155115992E-02
1.367321312E-01 9.143999815E-01 3.155115992E-02
1.309811175E-01 9.143999815E-01 3.179749101E-02
1.309811026E-01 9.143999815E-01 3.179749101E-02
1.255025715E-01 9.143999815E-01 3.199795634E-02
1.255025566E-01 9.143999815E-01 3.199795634E-02
1.202838272E-01 9.143999815E-01 3.215623274E-02
1.202838123E-01 9.143999815E-01 3.215623274E-02
1.153127477E-01 9.143999815E-01 3.227580339E-02
1.153127328E-01 9.143999815E-01 3.227580339E-02
1.105777621E-01 9.143999815E-01 3.235991672E-02
1.105777472E-01 9.143999815E-01 3.235991672E-02
1.060678363E-01 9.143999815E-01 3.241158277E-02
1.060678214E-01 9.143999815E-01 3.241158277E-02
1.017724350E-01 9.143999815E-01 3.243369609E-02
1.017724276E-01 9.143999815E-01 3.243369609E-02
9.768154472E-02 9.143999815E-01 3.242898732E-02
9.768153727E-02 9.143999815E-01 3.242898732E-02
9.378554672E-02 9.143999815E-01 3.239995614E-02
9.378553927E-02 9.143999815E-01 3.239995614E-02
8.999619633E-02 9.143999815E-01 3.234706074E-02
8.999618888E-02 9.143999815E-01 3.234706074E-02
8.999618143E-02 9.143999815E-01 3.234706074E-02
8.618364483E-02 9.143999815E-01 3.226821870E-02
8.233676106E-02 9.143999815E-01 3.216180950E-02
8.233675361E-02 9.143999815E-01 3.216180950E-02
7.849077880E-02 9.143999815E-01 3.202668577E-02
7.849077135E-02 9.143999815E-01 3.202668577E-02
7.464598864E-02 9.143999815E-01 3.186117858E-02
7.464598119E-02 9.143999815E-01 3.186117858E-02
7.080272585E-02 9.143999815E-01 3.166345134E-02
7.080271840E-02 9.143999815E-01 3.166345134E-02
6.696140021E-02 9.143999815E-01 3.143138438E-02
6.696139276E-02 9.143999815E-01 3.143138438E-02
6.312247366E-02 9.143999815E-01 3.116262518E-02
6.312246621E-02 9.143999815E-01 3.116262518E-02
5.928653106E-02 9.143999815E-01 3.085452318E-02
5.928651989E-02 9.143999815E-01 3.085452318E-02
5.545424297E-02 9.143999815E-01 3.050395846E-02
5.545423180E-02 9.143999815E-01 3.050395846E-02
5.162646994E-02 9.143999815E-01 3.010740317E-02
5.162645876E-02 9.143999815E-01 3.010740131E-02
4.780425131E-02 9.143999815E-01 2.966069616E-02
4.780424014E-02 9.143999815E-01 2.966069430E-02
4.398891330E-02 9.143999815E-01 2.915891632E-02
4.398890212E-02 9.143999815E-01 2.915891446E-02
4.018213600E-02 9.143999815E-01 2.859622054E-02
4.018212482E-02 9.143999815E-01 2.859621868E-02
3.638612106E-02 9.143999815E-01 2.796545252E-02
3.638610989E-02 9.143999815E-01 2.796545066E-02
3.260378540E-02 9.143999815E-01 2.725779638E-02
3.260377422E-02 9.143999815E-01 2.725779451E-02
2.883913927E-02 9.143999815E-01 2.646213397E-02
2.883912995E-02 9.143999815E-01 2.646213211E-02
2.509784140E-02 9.143999815E-01 2.556409128E-02
2.509783208E-02 9.143999815E-01 2.556408942E-02
2.138816752E-02 9.143999815E-01 2.454469912E-02
2.138815820E-02 9.143999815E-01 2.454469725E-02
1.772289723E-02 9.143999815E-01 2.337790281E-02
1.772288792E-02 9.143999815E-01 2.337789908E-02
1.412292104E-02 9.143999815E-01 2.202663198E-02
1.412291173E-02 9.143999815E-01 2.202662826E-02
1.043372974E-02 9.143999815E-01 2.077726275E-02
1.043372042E-02 9.143999815E-01 2.077725902E-02
6.251274142E-03 9.143999815E-01 2.030528523E-02
6.251263432E-03 9.143999815E-01 2.030528337E-02
1.472054864E-03 9.143999815E-01 2.047346905E-02
1.472042641E-03 9.143999815E-01 2.047346905E-02
-3.641055897E-03 9.143999815E-01 2.022115514E-02
-3.641068935E-03 9.143999815E-01 2.022115514E-02
-8.797308430E-03 9.143999815E-01 1.866159588E-02
-8.797321469E-03 9.143999815E-01 1.866159216E-02
-1.846222207E-02 9.143999815E-01 1.630442776E-02
-1.846224628E-02 9.143999815E-01 1.630442217E-02
-2.305184305E-02 9.143999815E-01 1.125304028E-02
-2.305185422E-02 9.143999815E-01 1.125302725E-02
-1.671964675E-02 9.143999815E-01 5.008644890E-03
-1.671962999E-02 9.143999815E-01 5.008629058E-03
-9.939673357E-03 9.143999815E-01 1.359050744E-03
-9.939655662E-03 9.143999815E-01 1.359041431E-03
-5.707132164E-03 9.143999815E-01 -1.555980882E-03
-5.707121454E-03 9.143999815E-01 -1.555988332E-03
-3.696565283E-03 9.143999815E-01 -5.480740219E-03
-3.696560161E-03 9.143999815E-01 -5.480749998E-03
-1.670803991E-03 9.143999815E-01 -1.013718266E-02
-1.670798869E-03 9.143999815E-01 -1.013719477E-02
5.811433657E-04 9.143999815E-01 -1.568352245E-02
5.811491283E-04 9.143999815E-01 -1.568353735E-02
5.913495086E-03 9.143999815E-01 -1.602439582E-02
5.913508590E-03 9.143999815E-01 -1.602439582E-02
1.243826840E-02 9.143999815E-01 -1.356406417E-02
1.243828516E-02 9.143999815E-01 -1.356405765E-02
1.669274084E-02 9.143999815E-01 -1.432289928E-02
1.669275202E-02 9.143999815E-01 -1.432290114E-02
2.080594003E-02 9.143999815E-01 -1.505676657E-02
2.080595121E-02 9.143999815E-01 -1.505676843E-02
2.483108640E-02 9.143999815E-01 -1.577008143E-02
2.483109757E-02 9.143999815E-01 -1.577008329E-02
2.879939787E-02 9.143999815E-01 -1.646149345E-02
2.879940718E-02 9.143999815E-01 -1.646149531E-02
3.273053467E-02 9.143999815E-01 -1.712827571E-02
3.273054585E-02 9.143999815E-01 -1.712827757E-02
3.663584962E-02 9.143999815E-01 -1.777177490E-02
3.663586080E-02 9.143999815E-01 -1.777177677E-02
4.052021727E-02 9.143999815E-01 -1.840221137E-02
4.052022845E-02 9.143999815E-01 -1.840221323E-02
4.438811168E-02 9.143999815E-01 -1.902436092E-02
4.438812286E-02 9.143999815E-01 -1.902436279E-02
4.824554175E-02 9.143999815E-01 -1.963164844E-02
4.824555293E-02 9.143999815E-01 -1.963165030E-02
5.209745094E-02 9.143999815E-01 -2.021533810E-02
5.209746212E-02 9.143999815E-01 -2.021533996E-02
5.594610795E-02 9.143999815E-01 -2.077387646E-02
5.594611913E-02 9.143999815E-01 -2.077387832E-02
5.978769064E-02 9.143999815E-01 -2.133109979E-02
5.978770182E-02 9.143999815E-01 -2.133110166E-02
6.360392272E-02 9.143999815E-01 -2.198475040E-02
6.360393018E-02 9.143999815E-01 -2.198475227E-02
6.739941239E-02 9.143999815E-01 -2.272826247E-02
6.739941984E-02 9.143999815E-01 -2.272826433E-02
7.119712234E-02 9.143999815E-01 -2.345905639E-02
7.119712979E-02 9.143999815E-01 -2.345905825E-02
7.500081509E-02 9.143999815E-01 -2.415804565E-02
7.500082254E-02 9.143999815E-01 -2.415804751E-02
7.880991697E-02 9.143999815E-01 -2.482702397E-02
7.880992442E-02 9.143999815E-01 -2.482702583E-02
8.262389153E-02 9.143999815E-01 -2.546760812E-02
8.262389898E-02 9.143999815E-01 -2.546760999E-02
8.642810583E-02 9.143999815E-01 -2.607911639E-02
8.642811328E-02 9.143999815E-01 -2.607911825E-02
8.642812073E-02 9.143999815E-01 -2.607912011E-02
9.025506675E-02 9.143999815E-01 -2.666770294E-02
9.025507420E-02 9.143999815E-01 -2.666770481E-02
9.421530366E-02 9.143999815E-01 -2.725013159E-02
9.421531111E-02 9.143999815E-01 -2.725013345E-02
9.837739170E-02 9.143999815E-01 -2.783498913E-02
9.837739915E-02 9.143999815E-01 -2.783499099E-02
1.027514338E-01 9.143999815E-01 -2.842104249E-02
1.027514488E-01 9.143999815E-01 -2.842104435E-02
1.073480248E-01 9.143999815E-01 -2.900695801E-02
1.073480397E-01 9.143999815E-01 -2.900695987E-02
1.121782959E-01 9.143999815E-01 -2.959129214E-02
1.121783108E-01 9.143999815E-01 -2.959129401E-02
1.172538847E-01 9.143999815E-01 -3.017245606E-02
1.172538996E-01 9.143999815E-01 -3.017245792E-02
1.225870177E-01 9.143999815E-01 -3.074874915E-02
1.225870326E-01 9.143999815E-01 -3.074875101E-02
1.281905472E-01 9.143999815E-01 -3.131834418E-02
1.281905621E-01 9.143999815E-01 -3.131834418E-02
1.340779066E-01 9.143999815E-01 -3.187929839E-02
1.340779215E-01 9.143999815E-01 -3.187929839E-02
1.402631998E-01 9.143999815E-01 -3.242950886E-02
1.402632147E-01 9.143999815E-01 -3.242950886E-02
1.467612386E-01 9.143999815E-01 -3.296674788E-02
1.467612535E-01 9.143999815E-01 -3.296674788E-02
1.535875499E-01 9.143999815E-01 -3.348860890E-02
1.535875648E-01 9.143999815E-01 -3.348860890E-02
1.607583910E-01 9.143999815E-01 -3.399255127E-02
1.607584059E-01 9.143999815E-01 -3.399255127E-02
1.682908535E-01 9.143999815E-01 -3.447587043E-02
1.682908684E-01 9.143999815E-01 -3.447587043E-02
1.761819720E-01 9.143999815E-01 -3.493467346E-02
1.761819869E-01 9.143999815E-01 -3.493467346E-02
1.843257993E-01 9.143999815E-01 -3.536064178E-02
1.843258142E-01 9.143999815E-01 -3.536064178E-02
1.925498843E-01 9.143999815E-01 -3.574460745E-02
1.925498992E-01 9.143999815E-01 -3.574460745E-02
2.007759213E-01 9.143999815E-01 -3.608449548E-02
2.007759362E-01 9.143999815E-01 -3.608449548E-02
2.090035826E-01 9.143999815E-01 -3.638277575E-02
2.090035975E-01 9.143999815E-01 -3.638277575E-02
2.172325701E-01 9.143999815E-01 -3.664173931E-02
2.172325850E-01 9.143999815E-01 -3.664173931E-02
2.254626453E-01 9.143999815E-01 -3.686351702E-02
2.254626602E-01 9.143999815E-01 -3.686351702E-02
2.336936295E-01 9.143999815E-01 -3.705007210E-02
2.336936444E-01 9.143999815E-01 -3.705007210E-02
2.419252694E-01 9.143999815E-01 -3.720324114E-02
2.419252843E-01 9.143999815E-01 -3.720324114E-02
2.501574755E-01 9.143999815E-01 -3.732471913E-02
2.501575053E-01 9.143999815E-01 -3.732471913E-02
2.583900690E-01 9.143999815E-01 -3.741607815E-02
2.583900988E-01 9.143999815E-01 -3.741607815E-02
2.666229010E-01 9.143999815E-01 -3.747877106E-02
2.666229308E-01 9.143999815E-01 -3.747877106E-02
2.748559117E-01 9.143999815E-01 -3.751412407E-02
2.748559415E-01 9.143999815E-01 -3.751412407E-02
2.830889821E-01 9.143999815E-01 -3.752338141E-02
2.830890119E-01 9.143999815E-01 -3.752338141E-02
2.913220823E-01 9.143999815E-01 -3.750771284E-02
2.913221121E-01 9.143999815E-01 -3.750771284E-02
2.995550931E-01 9.143999815E-01 -3.746818379E-02
2.995551229E-01 9.143999815E-01 -3.746818379E-02
3.077879548E-01 9.143999815E-01 -3.740577400E-02
3.077879846E-01 9.143999815E-01 -3.740577400E-02
3.160206079E-01 9.143999815E-01 -3.732137755E-02
3.160206378E-01 9.143999815E-01 -3.732137755E-02
3.242530227E-01 9.143999815E-01 -3.721580282E-02
3.242530525E-01 9.143999815E-01 -3.721580282E-02
3.324851394E-01 9.143999815E-01 -3.708979487E-02
3.324851692E-01 9.143999815E-01 -3.708979487E-02
3.407169580E-01 9.143999815E-01 -3.694403172E-02
3.407169878E-01 9.143999815E-01 -3.694403172E-02
3.489484191E-01 9.143999815E-01 -3.677909821E-02
3.489484489E-01 9.143999815E-01 -3.677909821E-02
3.571794629E-01 9.143999815E-01 -3.659550101E-02
3.571794927E-01 9.143999815E-01 -3.659550101E-02
3.654100895E-01 9.143999815E-01 -3.639372438E-02
3.654101193E-01 9.143999815E-01 -3.639372438E-02
3.736402988E-01 9.143999815E-01 -3.617422655E-02
3.736403286E-01 9.143999815E-01 -3.617422655E-02
3.818699718E-01 9.143999815E-01 -3.593733162E-02
3.818700016E-01 9.143999815E-01 -3.593733162E-02
3.900991678E-01 9.143999815E-01 -3.568327427E-02
3.900991976E-01 9.143999815E-01 -3.568327427E-02
3.983277977E-01 9.143999815E-01 -3.541228175E-02
3.983278275E-01 9.143999815E-01 -3.541228175E-02
4.065558612E-01 9.143999815E-01 -3.512456268E-02
4.065558910E-01 9.143999815E-01 -3.512456268E-02
4.147833586E-01 9.143999815E-01 -3.482019901E-02
4.147833884E-01 9.143999815E-01 -3.482019901E-02
4.230102003E-01 9.143999815E-01 -3.449919820E-02
4.230102301E-01 9.143999815E-01 -3.449919820E-02
4.312363863E-01 9.143999815E-01 -3.416159749E-02
4.312364161E-01 9.143999815E-01 -3.416159749E-02
4.394618273E-01 9.143999815E-01 -3.380737081E-02
4.394618571E-01 9.143999815E-01 -3.380737081E-02
4.476865828E-01 9.143999815E-01 -3.343637288E-02
4.476866126E-01 9.143999815E-01 -3.343637288E-02
4.559105635E-01 9.143999815E-01 -3.304842114E-02
4.559105933E-01 9.143999815E-01 -3.304842114E-02
4.641336799E-01 9.143999815E-01 -3.264333680E-02
4.641337097E-01 9.143999815E-01 -3.264333680E-02
4.723559320E-01 9.143999815E-01 -3.222086281E-02
4.723559618E-01 9.143999815E-01 -3.222086281E-02
4.805772603E-01 9.143999815E-01 -3.178066760E-02
4.805772901E-01 9.143999815E-01 -3.178066760E-02
4.887976050E-01 9.143999815E-01 -3.132242337E-02
4.887976348E-01 9.143999815E-01 -3.132242337E-02
4.970169067E-01 9.143999815E-01 -3.084569238E-02
4.970169365E-01 9.143999815E-01 -3.084569052E-02
5.052350760E-01 9.143999815E-01 -3.035001270E-02
5.052350760E-01 9.143999815E-01 -3.035001084E-02
5.132851601E-01 9.143999815E-01 -2.984597161E-02
5.132851601E-01 9.143999815E-01 -2.984596975E-02
5.202926397E-01 9.143999815E-01 -2.939302474E-02
5.202926397E-01 9.143999815E-01 -2.939302474E-02
5.252751112E-01 9.143999815E-01 -2.906246856E-02
5.252751112E-01 9.143999815E-01 -2.906246856E-02
5.283888578E-01 9.143999815E-01 -2.885158360E-02
5.283888578E-01 9.143999815E-01 -2.885158360E-02
5.303348303E-01 9.143999815E-01 -2.871807851E-02
5.303348303E-01 9.143999815E-01 -2.871807851E-02
5.315510035E-01 9.143999815E-01 -2.863398939E-02
5.315510035E-01 9.143999815E-01 -2.863398939E-02
5.322026014E-01 9.143999815E-01 -2.853316069E-02
5.323942304E-01 9.143999815E-01 -2.835304104E-02
5.323942304E-01 9.143999815E-01 -2.835304104E-02
5.324098468E-01 9.143999815E-01 -2.812955901E-02
5.324098468E-01 9.143999815E-01 -2.812955901E-02
5.324254632E-01 9.143999815E-01 -2.790607512E-02
5.324254632E-01 9.143999815E-01 -2.790607512E-02
5.324411392E-01 9.143999815E-01 -2.768259123E-02
5.324411392E-01 9.143999815E-01 -2.768259123E-02
5.324567556E-01 9.143999815E-01 -2.745911106E-02
5.324567556E-01 9.143999815E-01 -2.745911106E-02
5.324567556E-01 9.143999815E-01 -2.745911106E-02
5.322920680E-01 9.143999815E-01 -2.725407481E-02

ZONE T="SLICE_Y_0p9144_BINS03_KS_1mm_SINGLE_LAYER"
5.322920680E-01 9.143999815E-01 -2.725407481E-02
5.316609144E-01 9.143999815E-01 -2.706354484E-02
5.316609144E-01 9.143999815E-01 -2.706354484E-02
5.304682255E-01 9.143999815E-01 -2.681101114E-02
5.304682255E-01 9.143999815E-01 -2.681101114E-02
5.285598040E-01 9.143999815E-01 -2.640798129E-02
5.285598040E-01 9.143999815E-01 -2.640797943E-02
5.255056620E-01 9.143999815E-01 -2.576579712E-02
5.255056620E-01 9.143999815E-01 -2.576579526E-02
5.206177235E-01 9.143999815E-01 -2.474503405E-02
5.206177235E-01 9.143999815E-01 -2.474503219E-02
5.137227774E-01 9.143999815E-01 -2.331744134E-02
5.137227774E-01 9.143999815E-01 -2.331743762E-02
5.057653189E-01 9.143999815E-01 -2.168666199E-02
5.057653189E-01 9.143999815E-01 -2.168665826E-02
4.976216257E-01 9.143999815E-01 -2.003724128E-02
4.976215959E-01 9.143999815E-01 -2.003723755E-02
4.894740880E-01 9.143999815E-01 -1.840675622E-02
4.894740582E-01 9.143999815E-01 -1.840675250E-02
4.813229144E-01 9.143999815E-01 -1.679474115E-02
4.813228846E-01 9.143999815E-01 -1.679473743E-02
4.731681645E-01 9.143999815E-01 -1.520078443E-02
4.731681347E-01 9.143999815E-01 -1.520078070E-02
4.650099277E-01 9.143999815E-01 -1.362455916E-02
4.650098979E-01 9.143999815E-01 -1.362455543E-02
4.568483531E-01 9.143999815E-01 -1.206576731E-02
4.568483233E-01 9.143999815E-01 -1.206576359E-02
4.486835301E-01 9.143999815E-01 -1.052413229E-02
4.486835003E-01 9.143999815E-01 -1.052412856E-02
4.405155480E-01 9.143999815E-01 -8.999429643E-03
4.405155182E-01 9.143999815E-01 -8.999425918E-03
4.323444068E-01 9.143999815E-01 -7.491513155E-03
4.323443770E-01 9.143999815E-01 -7.491509430E-03
4.241702259E-01 9.143999815E-01 -6.000301801E-03
4.241701961E-01 9.143999815E-01 -6.000298075E-03
4.159930646E-01 9.143999815E-01 -4.525743425E-03
4.159930348E-01 9.143999815E-01 -4.525739700E-03
4.078128636E-01 9.143999815E-01 -3.067825455E-03
4.078128338E-01 9.143999815E-01 -3.067821730E-03
3.996297121E-01 9.143999815E-01 -1.626631478E-03
3.996296823E-01 9.143999815E-01 -1.626627753E-03
3.914436400E-01 9.143999815E-01 -2.022914705E-04
3.914436102E-01 9.143999815E-01 -2.022878325E-04
3.832545877E-01 9.143999815E-01 1.205050503E-03
3.832545578E-01 9.143999815E-01 1.205054112E-03
3.750626147E-01 9.143999815E-01 2.595133148E-03
3.750625849E-01 9.143999815E-01 2.595136641E-03
3.668676615E-01 9.143999815E-01 3.967626952E-03
3.668676317E-01 9.143999815E-01 3.967630677E-03
3.586697280E-01 9.143999815E-01 5.322236102E-03
3.586696982E-01 9.143999815E-01 5.322239362E-03
3.504688144E-01 9.143999815E-01 6.658549886E-03
3.504687846E-01 9.143999815E-01 6.658553146E-03
3.422648609E-01 9.143999815E-01 7.976014167E-03
3.422648311E-01 9.143999815E-01 7.976017892E-03
3.340577781E-01 9.143999815E-01 9.274058975E-03
3.340577483E-01 9.143999815E-01 9.274062701E-03
3.258475959E-01 9.143999815E-01 1.055207383E-02
3.258475661E-01 9.143999815E-01 1.055207662E-02
3.176341653E-01 9.143999815E-01 1.180936303E-02
3.176341355E-01 9.143999815E-01 1.180936582E-02
3.094175160E-01 9.143999815E-01 1.304515544E-02
3.094174862E-01 9.143999815E-01 1.304515824E-02
3.011975288E-01 9.143999815E-01 1.425859425E-02
3.011974990E-01 9.143999815E-01 1.425859705E-02
2.929741442E-01 9.143999815E-01 1.544874068E-02
2.929741144E-01 9.143999815E-01 1.544874348E-02
2.847472429E-01 9.143999815E-01 1.661456749E-02
2.847472131E-01 9.143999815E-01 1.661457121E-02
2.765167952E-01 9.143999815E-01 1.775496453E-02
2.765167654E-01 9.143999815E-01 1.775496826E-02
2.682827115E-01 9.143999815E-01 1.886872202E-02
2.682826817E-01 9.143999815E-01 1.886872575E-02
2.600449026E-01 9.143999815E-01 1.995451376E-02
2.600448728E-01 9.143999815E-01 1.995451562E-02
2.518032491E-01 9.143999815E-01 2.101092041E-02
2.518032193E-01 9.143999815E-01 2.101092227E-02
2.435577065E-01 9.143999815E-01 2.203642018E-02
2.435576916E-01 9.143999815E-01 2.203642204E-02
2.353081852E-01 9.143999815E-01 2.302936278E-02
2.353081703E-01 9.143999815E-01 2.302936465E-02
2.270546108E-01 9.143999815E-01 2.398796566E-02
2.270545959E-01 9.143999815E-01 2.398796752E-02
2.187968940E-01 9.143999815E-01 2.491029911E-02
2.187968791E-01 9.143999815E-01 2.491030097E-02
2.105350047E-01 9.143999815E-01 2.579426579E-02
2.105349898E-01 9.143999815E-01 2.579426765E-02
2.022688836E-01 9.143999815E-01 2.663757838E-02
2.022688687E-01 9.143999815E-01 2.663758025E-02
1.939984709E-01 9.143999815E-01 2.743780799E-02
1.939984560E-01 9.143999815E-01 2.743780985E-02
1.857771128E-01 9.143999815E-01 2.818794362E-02
1.857770979E-01 9.143999815E-01 2.818794549E-02
1.777543277E-01 9.143999815E-01 2.887401916E-02
1.777543128E-01 9.143999815E-01 2.887402102E-02
1.700646430E-01 9.143999815E-01 2.948614582E-02
1.700646281E-01 9.143999815E-01 2.948614769E-02
1.627377719E-01 9.143999815E-01 3.002528287E-02
1.627377570E-01 9.143999815E-01 3.002528474E-02
1.557568312E-01 9.143999815E-01 3.049659915E-02
1.557568163E-01 9.143999815E-01 3.049660102E-02
1.491057128E-01 9.143999815E-01 3.090497293E-02
1.491056979E-01 9.143999815E-01 3.090497479E-02
1.427690238E-01 9.143999815E-01 3.125503287E-02
1.427690089E-01 9.143999815E-01 3.125503287E-02
1.367321461E-01 9.143999815E-01 3.155115992E-02
1.367321312E-01 9.143999815E-01 3.155115992E-02
1.309811175E-01 9.143999815E-01 3.179749101E-02
1.309811026E-01 9.143999815E-01 3.179749101E-02
1.255025715E-01 9.143999815E-01 3.199795634E-02
1.255025566E-01 9.143999815E-01 3.199795634E-02
1.202838272E-01 9.143999815E-01 3.215623274E-02
1.202838123E-01 9.143999815E-01 3.215623274E-02
1.153127477E-01 9.143999815E-01 3.227580339E-02
1.153127328E-01 9.143999815E-01 3.227580339E-02
1.105777621E-01 9.143999815E-01 3.235991672E-02
1.105777472E-01 9.143999815E-01 3.235991672E-02
1.060678363E-01 9.143999815E-01 3.241158277E-02
1.060678214E-01 9.143999815E-01 3.241158277E-02
1.017724350E-01 9.143999815E-01 3.243369609E-02
1.017724276E-01 9.143999815E-01 3.243369609E-02
9.768154472E-02 9.143999815E-01 3.242898732E-02
9.768153727E-02 9.143999815E-01 3.242898732E-02
9.378554672E-02 9.143999815E-01 3.239995614E-02
9.378553927E-02 9.143999815E-01 3.239995614E-02
8.999619633E-02 9.143999815E-01 3.234706074E-02
8.999618888E-02 9.143999815E-01 3.234706074E-02
8.999618143E-02 9.143999815E-01 3.234706074E-02
8.618364483E-02 9.143999815E-01 3.226821870E-02
8.233676106E-02 9.143999815E-01 3.216180950E-02
8.233675361E-02 9.143999815E-01 3.216180950E-02
7.849077880E-02 9.143999815E-01 3.202668577E-02
7.849077135E-02 9.143999815E-01 3.202668577E-02
7.464598864E-02 9.143999815E-01 3.186117858E-02
7.464598119E-02 9.143999815E-01 3.186117858E-02
7.080272585E-02 9.143999815E-01 3.166345134E-02
7.080271840E-02 9.143999815E-01 3.166345134E-02
6.696140021E-02 9.143999815E-01 3.143138438E-02
6.696139276E-02 9.143999815E-01 3.143138438E-02
6.312247366E-02 9.143999815E-01 3.116262518E-02
6.312246621E-02 9.143999815E-01 3.116262518E-02
5.928653106E-02 9.143999815E-01 3.085452318E-02
5.928651989E-02 9.143999815E-01 3.085452318E-02
5.545424297E-02 9.143999815E-01 3.050395846E-02
5.545423180E-02 9.143999815E-01 3.050395846E-02
5.162646994E-02 9.143999815E-01 3.010740317E-02
5.162645876E-02 9.143999815E-01 3.010740131E-02
4.780425131E-02 9.143999815E-01 2.966069616E-02
4.780424014E-02 9.143999815E-01 2.966069430E-02
4.398891330E-02 9.143999815E-01 2.915891632E-02
4.398890212E-02 9.143999815E-01 2.915891446E-02
4.018213600E-02 9.143999815E-01 2.859622054E-02
4.018212482E-02 9.143999815E-01 2.859621868E-02
3.638612106E-02 9.143999815E-01 2.796545252E-02
3.638610989E-02 9.143999815E-01 2.796545066E-02
3.260378540E-02 9.143999815E-01 2.725779638E-02
3.260377422E-02 9.143999815E-01 2.725779451E-02
2.883913927E-02 9.143999815E-01 2.646213397E-02
2.883912995E-02 9.143999815E-01 2.646213211E-02
2.508277260E-02 9.143999815E-01 2.561930753E-02
2.508276328E-02 9.143999815E-01 2.561930567E-02
2.131588012E-02 9.143999815E-01 2.478130162E-02
2.131587081E-02 9.143999815E-01 2.478129975E-02
1.754187047E-02 9.143999815E-01 2.389304154E-02
1.754186116E-02 9.143999815E-01 2.389303967E-02
1.376634836E-02 9.143999815E-01 2.288115397E-02
1.376633905E-02 9.143999815E-01 2.288115211E-02
9.900980629E-03 9.143999815E-01 2.183291502E-02
9.900970384E-03 9.143999815E-01 2.183291316E-02
5.793987773E-03 9.143999815E-01 2.105477825E-02
5.793977529E-03 9.143999815E-01 2.105477639E-02
1.386725460E-03 9.143999815E-01 2.061547898E-02
1.386714168E-03 9.143999815E-01 2.061547711E-02
-3.273352748E-03 9.143999815E-01 1.994044520E-02
-3.273364622E-03 9.143999815E-01 1.994044334E-02
-8.053586818E-03 9.143999815E-01 1.826031320E-02
-8.053598925E-03 9.143999815E-01 1.826030947E-02
-1.567472704E-02 9.143999815E-01 1.567275636E-02
-1.567474566E-02 9.143999815E-01 1.567274891E-02
-2.064905129E-02 9.143999815E-01 1.081746351E-02
-2.064906433E-02 9.143999815E-01 1.081745140E-02
-1.659725234E-02 9.143999815E-01 5.027871113E-03
-1.659724116E-02 9.143999815E-01 5.027856212E-03
-9.826399386E-03 9.143999815E-01 1.403258415E-03
-9.826381691E-03 9.143999815E-01 1.403249218E-03
-5.605021492E-03 9.143999815E-01 -1.491421717E-03
-5.605010781E-03 9.143999815E-01 -1.491429051E-03
-3.606301267E-03 9.143999815E-01 -5.400399212E-03
-3.606296144E-03 9.143999815E-01 -5.400408991E-03
-1.591442735E-03 9.143999815E-01 -1.004459243E-02
-1.591437613E-03 9.143999815E-01 -1.004460454E-02
2.110593021E-03 9.143999815E-01 -1.324270293E-02
2.110602567E-03 9.143999815E-01 -1.324271131E-02
7.580797188E-03 9.143999815E-01 -1.330695301E-02
7.580811158E-03 9.143999815E-01 -1.330695301E-02
1.274142973E-02 9.143999815E-01 -1.296858676E-02
1.274144277E-02 9.143999815E-01 -1.296858583E-02
1.690739021E-02 9.143999815E-01 -1.385119557E-02
1.690740138E-02 9.143999815E-01 -1.385119744E-02
2.094748430E-02 9.143999815E-01 -1.471385919E-02
2.094749548E-02 9.143999815E-01 -1.471386105E-02
2.491735481E-02 9.143999815E-01 -1.554253511E-02
2.491736412E-02 9.143999815E-01 -1.554253697E-02
2.884274721E-02 9.143999815E-01 -1.633848622E-02
2.884275652E-02 9.143999815E-01 -1.633848809E-02
3.273924068E-02 9.143999815E-01 -1.710298471E-02