VARIABLES = "X" "Y" "Z" "Cp" "HTC" "Beta" "Ts" "FF" "k" "RhoIce" "HTC_CLEAN"

ZONE T="SLICE_Y_0p10_BINS07_KS_0p5mm_CUTDATA"
1.028093e+00 1.000000e-01 0.000000e+00 1.461738e-01 1.995046e+02 0.000000e+00 1.693927e+00 0.000000e+00 -999 -999 -999
1.027989e+00 1.000000e-01 -1.341419e-05 1.474459e-01 1.689376e+02 0.000000e+00 1.693927e+00 0.000000e+00 -999 -999 -999
1.027670e+00 1.000000e-01 -5.436315e-05 1.452064e-01 1.489906e+02 0.000000e+00 1.693927e+00 0.000000e+00 -999 -999 -999
1.027121e+00 1.000000e-01 -1.250155e-04 1.430632e-01 1.467948e+02 0.000000e+00 1.693927e+00 0.000000e+00 -999 -999 -999
1.026310e+00 1.000000e-01 -2.291511e-04 1.405856e-01 1.513185e+02 0.000000e+00 1.693927e+00 0.000000e+00 -999 -999 -999
1.025194e+00 1.000000e-01 -3.724096e-04 1.374028e-01 1.540965e+02 0.000000e+00 1.693927e+00 0.000000e+00 -999 -999 -999
1.023709e+00 1.000000e-01 -5.626273e-04 1.337366e-01 1.569205e+02 0.000000e+00 1.693927e+00 0.000000e+00 -999 -999 -999
1.021768e+00 1.000000e-01 -8.102357e-04 1.292991e-01 1.597336e+02 0.000000e+00 1.693927e+00 0.000000e+00 -999 -999 -999
1.019254e+00 1.000000e-01 -1.129076e-03 1.240958e-01 1.625802e+02 0.000000e+00 1.693927e+00 0.000000e+00 -999 -999 -999
1.016009e+00 1.000000e-01 -1.537635e-03 1.179195e-01 1.656013e+02 0.000000e+00 1.693927e+00 0.000000e+00 -999 -999 -999
1.011826e+00 1.000000e-01 -2.060255e-03 1.106183e-01 1.688206e+02 0.000000e+00 1.693927e+00 0.000000e+00 -999 -999 -999
1.006429e+00 1.000000e-01 -2.729024e-03 1.019552e-01 1.723356e+02 0.000000e+00 1.693927e+00 0.000000e+00 -999 -999 -999
9.994569e-01 1.000000e-01 -3.586666e-03 9.163757e-02 1.760384e+02 0.000000e+00 1.693927e+00 0.000000e+00 -999 -999 -999
9.904411e-01 1.000000e-01 -4.691473e-03 7.912411e-02 1.801274e+02 0.000000e+00 1.693927e+00 0.000000e+00 -999 -999 -999
9.787831e-01 1.000000e-01 -6.126503e-03 6.340978e-02 1.852297e+02 0.000000e+00 1.693927e+00 0.000000e+00 -999 -999 -999
9.637350e-01 1.000000e-01 -7.988208e-03 4.418454e-02 1.905448e+02 0.000000e+00 1.693927e+00 0.000000e+00 -999 -999 -999
9.443919e-01 1.000000e-01 -1.035464e-02 2.161945e-02 1.964975e+02 0.000000e+00 1.693927e+00 0.000000e+00 -999 -999 -999
9.197111e-01 1.000000e-01 -1.328691e-02 -3.169778e-03 2.037016e+02 0.000000e+00 1.693927e+00 0.000000e+00 -999 -999 -999
8.885783e-01 1.000000e-01 -1.680418e-02 -2.809870e-02 2.118876e+02 0.000000e+00 1.693927e+00 0.000000e+00 -999 -999 -999
8.499432e-01 1.000000e-01 -2.088155e-02 -5.165271e-02 2.200278e+02 0.000000e+00 1.693927e+00 0.000000e+00 -999 -999 -999
8.030411e-01 1.000000e-01 -2.546838e-02 -7.428397e-02 2.277164e+02 0.000000e+00 1.693927e+00 0.000000e+00 -999 -999 -999
7.476835e-01 1.000000e-01 -3.048709e-02 -9.844621e-02 2.369469e+02 0.000000e+00 1.693927e+00 0.000000e+00 -999 -999 -999
6.845550e-01 1.000000e-01 -3.572984e-02 -1.256842e-01 2.497013e+02 0.000000e+00 1.693927e+00 0.000000e+00 -999 -999 -999
6.153924e-01 1.000000e-01 -4.069165e-02 -1.519570e-01 2.655065e+02 0.000000e+00 1.693927e+00 0.000000e+00 -999 -999 -999
5.429130e-01 1.000000e-01 -4.459679e-02 -1.677316e-01 2.796992e+02 0.000000e+00 1.693927e+00 0.000000e+00 -999 -999 -999
5.429130e-01 1.000000e-01 -4.459679e-02 -1.677316e-01 2.917480e+02 0.000000e+00 1.693927e+00 0.000000e+00 -999 -999 -999
4.704336e-01 1.000000e-01 -4.678968e-02 -1.666787e-01 3.037138e+02 0.000000e+00 1.693927e+00 0.000000e+00 -999 -999 -999
4.012709e-01 1.000000e-01 -4.715391e-02 -1.524288e-01 3.147831e+02 0.000000e+00 1.693927e+00 0.000000e+00 -999 -999 -999
3.381424e-01 1.000000e-01 -4.608622e-02 -1.325662e-01 3.258750e+02 0.000000e+00 1.693927e+00 0.000000e+00 -999 -999 -999
2.827848e-01 1.000000e-01 -4.412567e-02 -1.124818e-01 3.378566e+02 0.000000e+00 1.693927e+00 0.000000e+00 -999 -999 -999
2.358827e-01 1.000000e-01 -4.167532e-02 -9.449517e-02 3.517636e+02 0.000000e+00 1.693927e+00 0.000000e+00 -999 -999 -999
1.972477e-01 1.000000e-01 -3.898187e-02 -7.773263e-02 3.680941e+02 0.000000e+00 1.693927e+00 0.000000e+00 -999 -999 -999
1.661148e-01 1.000000e-01 -3.621831e-02 -6.099913e-02 3.839125e+02 0.000000e+00 1.693927e+00 0.000000e+00 -999 -999 -999
1.414340e-01 1.000000e-01 -3.353096e-02 -4.431261e-02 3.971252e+02 0.000000e+00 0.000000e+00 7.818116e-01 -999 -999 -999
1.220909e-01 1.000000e-01 -3.103769e-02 -3.362466e-02 4.115998e+02 0.000000e+00 0.000000e+00 6.213109e-01 -999 -999 -999
1.070428e-01 1.000000e-01 -2.881650e-02 -4.184356e-02 4.393515e+02 0.000000e+00 0.000000e+00 3.235692e-01 -999 -999 -999
9.538487e-02 1.000000e-01 -2.685723e-02 -6.841001e-02 4.914695e+02 9.386511e-04 0.000000e+00 2.152465e-01 -999 -999 -999
8.636903e-02 1.000000e-01 -2.491525e-02 -8.442792e-02 5.584991e+02 2.289643e-02 0.000000e+00 1.615998e-01 -999 -999 -999
7.939676e-02 1.000000e-01 -2.280090e-02 -5.590341e-02 6.203744e+02 9.159026e-02 0.000000e+00 1.303361e-01 -999 -999 -999
7.399967e-02 1.000000e-01 -2.051578e-02 2.881452e-02 6.541463e+02 1.827367e-01 0.000000e+00 1.094769e-01 -999 -999 -999
6.981670e-02 1.000000e-01 -1.814448e-02 1.538014e-01 6.631374e+02 2.671869e-01 0.000000e+00 9.523457e-02 -999 -999 -999
6.657243e-02 1.000000e-01 -1.578196e-02 2.936919e-01 6.658117e+02 3.404092e-01 0.000000e+00 8.635453e-02 -999 -999 -999
6.405829e-02 1.000000e-01 -1.348854e-02 4.289595e-01 6.537874e+02 4.031868e-01 0.000000e+00 8.017094e-02 -999 -999 -999
6.211734e-02 1.000000e-01 -1.129883e-02 5.475236e-01 6.298620e+02 4.557824e-01 0.000000e+00 7.624165e-02 -999 -999 -999
6.063222e-02 1.000000e-01 -9.217762e-03 6.444460e-01 5.998896e+02 5.005963e-01 0.000000e+00 7.487697e-02 -999 -999 -999
5.951603e-02 1.000000e-01 -7.239636e-03 7.166347e-01 5.998896e+02 5.005963e-01 0.000000e+00 7.487697e-02 -999 -999 -999
5.870542e-02 1.000000e-01 -5.350021e-03 7.636520e-01 5.646776e+02 5.371503e-01 0.000000e+00 7.617833e-02 -999 -999 -999
5.815566e-02 1.000000e-01 -3.545324e-03 7.848119e-01 5.280090e+02 5.660353e-01 0.000000e+00 8.072665e-02 -999 -999 -999
5.783707e-02 1.000000e-01 -1.825911e-03 7.789352e-01 4.907645e+02 5.881009e-01 0.000000e+00 9.461916e-02 -999 -999 -999
5.773270e-02 1.000000e-01 0.000000e+00 7.476126e-01 4.558664e+02 6.002611e-01 0.000000e+00 1.248290e-01 -999 -999 -999
5.783707e-02 1.000000e-01 1.825911e-03 6.886193e-01 4.291278e+02 6.016033e-01 0.000000e+00 1.923256e-01 -999 -999 -999
5.815566e-02 1.000000e-01 3.545324e-03 6.037985e-01 4.213444e+02 5.943239e-01 0.000000e+00 2.189867e-01 -999 -999 -999
5.870542e-02 1.000000e-01 5.350021e-03 5.012158e-01 4.333145e+02 5.794532e-01 0.000000e+00 1.471401e-01 -999 -999 -999
5.951603e-02 1.000000e-01 7.239636e-03 3.760926e-01 4.549160e+02 5.566895e-01 0.000000e+00 1.106477e-01 -999 -999 -999
6.063222e-02 1.000000e-01 9.217762e-03 2.323254e-01 4.822633e+02 5.256050e-01 0.000000e+00 9.503430e-02 -999 -999 -999
6.211734e-02 1.000000e-01 1.129883e-02 7.419281e-02 5.110941e+02 4.860072e-01 0.000000e+00 8.867026e-02 -999 -999 -999
6.405829e-02 1.000000e-01 1.348854e-02 -9.572385e-02 5.348292e+02 4.372598e-01 0.000000e+00 8.722249e-02 -999 -999 -999
6.657243e-02 1.000000e-01 1.578196e-02 -2.700179e-01 5.499087e+02 3.778571e-01 0.000000e+00 8.917017e-02 -999 -999 -999
6.981670e-02 1.000000e-01 1.814448e-02 -4.262102e-01 5.591960e+02 3.060105e-01 0.000000e+00 9.482514e-02 -999 -999 -999
7.399967e-02 1.000000e-01 2.051578e-02 -5.405387e-01 5.455565e+02 2.220142e-01 0.000000e+00 1.030783e-01 -999 -999 -999
7.939676e-02 1.000000e-01 2.280090e-02 -5.863373e-01 5.054203e+02 1.337913e-01 0.000000e+00 1.144866e-01 -999 -999 -999
8.636903e-02 1.000000e-01 2.491525e-02 -5.544592e-01 4.577814e+02 5.992920e-02 0.000000e+00 1.352089e-01 -999 -999 -999
9.538487e-02 1.000000e-01 2.685723e-02 -4.707687e-01 4.175523e+02 1.924124e-02 0.000000e+00 1.763465e-01 -999 -999 -999
1.070428e-01 1.000000e-01 2.881650e-02 -3.840625e-01 3.927332e+02 6.626170e-03 0.000000e+00 2.610616e-01 -999 -999 -999
1.220909e-01 1.000000e-01 3.103769e-02 -3.311801e-01 3.772292e+02 2.639713e-03 0.000000e+00 4.570404e-01 -999 -999 -999
1.414340e-01 1.000000e-01 3.353096e-02 -3.066855e-01 3.636777e+02 5.386982e-04 0.000000e+00 8.394123e-01 -999 -999 -999
1.661148e-01 1.000000e-01 3.621831e-02 -2.936234e-01 3.486815e+02 2.151477e-05 1.683462e+00 0.000000e+00 -999 -999 -999
1.972477e-01 1.000000e-01 3.898187e-02 -2.852971e-01 3.339422e+02 0.000000e+00 1.693927e+00 0.000000e+00 -999 -999 -999
2.358827e-01 1.000000e-01 4.167532e-02 -2.797106e-01 3.222809e+02 0.000000e+00 1.693927e+00 0.000000e+00 -999 -999 -999
2.827848e-01 1.000000e-01 4.412567e-02 -2.775221e-01 3.126379e+02 0.000000e+00 1.693927e+00 0.000000e+00 -999 -999 -999
3.381424e-01 1.000000e-01 4.608622e-02 -2.793935e-01 3.036182e+02 0.000000e+00 1.693927e+00 0.000000e+00 -999 -999 -999
4.012709e-01 1.000000e-01 4.715391e-02 -2.826631e-01 2.945392e+02 0.000000e+00 1.693927e+00 0.000000e+00 -999 -999 -999
4.704336e-01 1.000000e-01 4.678968e-02 -2.805861e-01 2.846707e+02 0.000000e+00 1.693927e+00 0.000000e+00 -999 -999 -999
5.429130e-01 1.000000e-01 4.459679e-02 -2.633609e-01 2.748865e+02 0.000000e+00 1.693927e+00 0.000000e+00 -999 -999 -999
6.153924e-01 1.000000e-01 4.069165e-02 -2.302036e-01 2.627789e+02 0.000000e+00 1.693927e+00 0.000000e+00 -999 -999 -999
6.845550e-01 1.000000e-01 3.572984e-02 -1.896215e-01 2.486420e+02 0.000000e+00 1.693927e+00 0.000000e+00 -999 -999 -999
7.476835e-01 1.000000e-01 3.048709e-02 -1.495183e-01 2.373991e+02 0.000000e+00 1.693927e+00 0.000000e+00 -999 -999 -999
8.030411e-01 1.000000e-01 2.546838e-02 -1.140461e-01 2.295849e+02 0.000000e+00 1.693927e+00 0.000000e+00 -999 -999 -999
8.499432e-01 1.000000e-01 2.088155e-02 -8.162172e-02 2.232638e+02 0.000000e+00 1.693927e+00 0.000000e+00 -999 -999 -999
8.885783e-01 1.000000e-01 1.680418e-02 -4.981267e-02 2.164004e+02 0.000000e+00 1.693927e+00 0.000000e+00 -999 -999 -999
9.197111e-01 1.000000e-01 1.328691e-02 -1.818259e-02 2.094214e+02 0.000000e+00 1.693927e+00 0.000000e+00 -999 -999 -999
9.443919e-01 1.000000e-01 1.035464e-02 1.168781e-02 2.033345e+02 0.000000e+00 1.693927e+00 0.000000e+00 -999 -999 -999
9.637350e-01 1.000000e-01 7.988208e-03 3.785199e-02 1.983618e+02 0.000000e+00 1.693927e+00 0.000000e+00 -999 -999 -999
9.787831e-01 1.000000e-01 6.126503e-03 5.965453e-02 1.938262e+02 0.000000e+00 1.693927e+00 0.000000e+00 -999 -999 -999
9.904411e-01 1.000000e-01 4.691473e-03 7.719744e-02 1.893345e+02 0.000000e+00 1.693927e+00 0.000000e+00 -999 -999 -999
9.994569e-01 1.000000e-01 3.586666e-03 9.104300e-02 1.857798e+02 0.000000e+00 1.693927e+00 0.000000e+00 -999 -999 -999
1.006429e+00 1.000000e-01 2.729024e-03 1.022332e-01 1.824358e+02 0.000000e+00 1.693927e+00 0.000000e+00 -999 -999 -999
1.011826e+00 1.000000e-01 2.060255e-03 1.114030e-01 1.791879e+02 0.000000e+00 1.693927e+00 0.000000e+00 -999 -999 -999
1.016009e+00 1.000000e-01 1.537635e-03 1.189448e-01 1.761940e+02 0.000000e+00 1.693927e+00 0.000000e+00 -999 -999 -999
1.019254e+00 1.000000e-01 1.129076e-03 1.251871e-01 1.733709e+02 0.000000e+00 1.693927e+00 0.000000e+00 -999 -999 -999
1.021768e+00 1.000000e-01 8.102357e-04 1.303418e-01 1.707312e+02 0.000000e+00 1.693927e+00 0.000000e+00 -999 -999 -999
1.023709e+00 1.000000e-01 5.626273e-04 1.346528e-01 1.681167e+02 0.000000e+00 1.693927e+00 0.000000e+00 -999 -999 -999
1.025194e+00 1.000000e-01 3.724096e-04 1.381834e-01 1.655866e+02 0.000000e+00 1.693927e+00 0.000000e+00 -999 -999 -999
1.026310e+00 1.000000e-01 2.291511e-04 1.411650e-01 1.632663e+02 0.000000e+00 1.693927e+00 0.000000e+00 -999 -999 -999
1.027121e+00 1.000000e-01 1.250155e-04 1.435326e-01 1.592645e+02 0.000000e+00 1.693927e+00 0.000000e+00 -999 -999 -999
1.027670e+00 1.000000e-01 5.436315e-05 1.454175e-01 1.615927e+02 0.000000e+00 1.693927e+00 0.000000e+00 -999 -999 -999
1.027989e+00 1.000000e-01 1.341419e-05 1.472758e-01 1.793619e+02 0.000000e+00 1.693927e+00 0.000000e+00 -999 -999 -999

ZONE T="SLICE_Y_0p75_BINS07_KS_0p5mm_CUTDATA"
1.210699e+00 7.500000e-01 0.000000e+00 1.485561e-01 2.161026e+02 0.000000e+00 1.693927e+00 0.000000e+00 -999 -999 -999
1.210616e+00 7.500000e-01 -1.075092e-05 1.500845e-01 1.780074e+02 0.000000e+00 1.693927e+00 0.000000e+00 -999 -999 -999
1.210360e+00 7.500000e-01 -4.356982e-05 1.479372e-01 1.501688e+02 0.000000e+00 1.693927e+00 0.000000e+00 -999 -999 -999
1.209920e+00 7.500000e-01 -1.001948e-04 1.461645e-01 1.458664e+02 0.000000e+00 1.693927e+00 0.000000e+00 -999 -999 -999
1.209270e+00 7.500000e-01 -1.836552e-04 1.440354e-01 1.507533e+02 0.000000e+00 1.693927e+00 0.000000e+00 -999 -999 -999
1.208375e+00 7.500000e-01 -2.984709e-04 1.413050e-01 1.532608e+02 0.000000e+00 1.693927e+00 0.000000e+00 -999 -999 -999
1.207185e+00 7.500000e-01 -4.509226e-04 1.381717e-01 1.561321e+02 0.000000e+00 1.693927e+00 0.000000e+00 -999 -999 -999
1.205629e+00 7.500000e-01 -6.493704e-04 1.343323e-01 1.588886e+02 0.000000e+00 1.693927e+00 0.000000e+00 -999 -999 -999
1.203614e+00 7.500000e-01 -9.049080e-04 1.298682e-01 1.616743e+02 0.000000e+00 1.693927e+00 0.000000e+00 -999 -999 -999
1.201014e+00 7.500000e-01 -1.232351e-03 1.245465e-01 1.646062e+02 0.000000e+00 1.693927e+00 0.000000e+00 -999 -999 -999
1.197662e+00 7.500000e-01 -1.651209e-03 1.182564e-01 1.677946e+02 0.000000e+00 1.693927e+00 0.000000e+00 -999 -999 -999
1.193336e+00 7.500000e-01 -2.187200e-03 1.107536e-01 1.713739e+02 0.000000e+00 1.693927e+00 0.000000e+00 -999 -999 -999
1.187748e+00 7.500000e-01 -2.874565e-03 1.017787e-01 1.752623e+02 0.000000e+00 1.693927e+00 0.000000e+00 -999 -999 -999
1.180523e+00 7.500000e-01 -3.760022e-03 9.077222e-02 1.796511e+02 0.000000e+00 1.693927e+00 0.000000e+00 -999 -999 -999
1.171179e+00 7.500000e-01 -4.910139e-03 7.695438e-02 1.844802e+02 0.000000e+00 1.693927e+00 0.000000e+00 -999 -999 -999
1.159119e+00 7.500000e-01 -6.402219e-03 5.983479e-02 1.888479e+02 0.000000e+00 1.693927e+00 0.000000e+00 -999 -999 -999
1.143616e+00 7.500000e-01 -8.298819e-03 3.928829e-02 1.938087e+02 0.000000e+00 1.693927e+00 0.000000e+00 -999 -999 -999
1.123835e+00 7.500000e-01 -1.064891e-02 1.610570e-02 2.003168e+02 0.000000e+00 1.693927e+00 0.000000e+00 -999 -999 -999
1.098884e+00 7.500000e-01 -1.346785e-02 -8.055640e-03 2.084366e+02 0.000000e+00 1.693927e+00 0.000000e+00 -999 -999 -999
1.067919e+00 7.500000e-01 -1.673570e-02 -3.179545e-02 2.169065e+02 0.000000e+00 1.693927e+00 0.000000e+00 -999 -999 -999
1.030329e+00 7.500000e-01 -2.041185e-02 -5.548587e-02 2.255071e+02 0.000000e+00 1.693927e+00 0.000000e+00 -999 -999 -999
9.859624e-01 7.500000e-01 -2.443415e-02 -8.158948e-02 2.366168e+02 0.000000e+00 1.693927e+00 0.000000e+00 -999 -999 -999
9.353675e-01 7.500000e-01 -2.863599e-02 -1.120400e-01 2.516888e+02 0.000000e+00 1.693927e+00 0.000000e+00 -999 -999 -999
8.799365e-01 7.500000e-01 -3.261268e-02 -1.435971e-01 2.696664e+02 0.000000e+00 1.693927e+00 0.000000e+00 -999 -999 -999
8.218472e-01 7.500000e-01 -3.574249e-02 -1.676393e-01 2.882383e+02 0.000000e+00 1.693927e+00 0.000000e+00 -999 -999 -999
7.637580e-01 7.500000e-01 -3.750000e-02 -1.756370e-01 3.054796e+02 0.000000e+00 1.693927e+00 0.000000e+00 -999 -999 -999
7.083270e-01 7.500000e-01 -3.779192e-02 -1.693991e-01 3.205729e+02 0.000000e+00 1.693927e+00 0.000000e+00 -999 -999 -999
6.577321e-01 7.500000e-01 -3.693620e-02 -1.568933e-01 3.341314e+02 0.000000e+00 1.693927e+00 0.000000e+00 -999 -999 -999
6.133652e-01 7.500000e-01 -3.536490e-02 -1.426103e-01 3.474826e+02 0.000000e+00 1.693927e+00 0.000000e+00 -999 -999 -999
5.757751e-01 7.500000e-01 -3.340105e-02 -1.287333e-01 3.613646e+02 0.000000e+00 1.693927e+00 0.000000e+00 -999 -999 -999
5.448107e-01 7.500000e-01 -3.124236e-02 -1.147261e-01 3.763210e+02 0.000000e+00 1.693927e+00 0.000000e+00 -999 -999 -999
5.198590e-01 7.500000e-01 -2.902748e-02 -9.948018e-02 3.941235e+02 0.000000e+00 1.693927e+00 0.000000e+00 -999 -999 -999
5.000784e-01 7.500000e-01 -2.687368e-02 -8.339788e-02 4.128759e+02 0.000000e+00 1.693927e+00 0.000000e+00 -999 -999 -999
5.000784e-01 7.500000e-01 -2.687368e-02 -8.339788e-02 4.285863e+02 0.000000e+00 1.693927e+00 0.000000e+00 -999 -999 -999
4.845757e-01 7.500000e-01 -2.487543e-02 -7.168017e-02 4.454143e+02 0.000000e+00 0.000000e+00 8.461809e-01 -999 -999 -999
4.725153e-01 7.500000e-01 -2.309523e-02 -7.650936e-02 4.787590e+02 0.000000e+00 0.000000e+00 4.462739e-01 -999 -999 -999
4.631719e-01 7.500000e-01 -2.152496e-02 -9.835894e-02 5.437610e+02 7.795183e-04 0.000000e+00 2.738678e-01 -999 -999 -999
4.559461e-01 7.500000e-01 -1.996854e-02 -1.091812e-01 6.262894e+02 2.279642e-02 0.000000e+00 1.975185e-01 -999 -999 -999
4.503581e-01 7.500000e-01 -1.827398e-02 -7.476129e-02 7.035035e+02 9.379713e-02 0.000000e+00 1.552553e-01 -999 -999 -999
4.460326e-01 7.500000e-01 -1.644255e-02 1.579601e-02 7.635467e+02 1.885622e-01 0.000000e+00 1.299857e-01 -999 -999 -999
4.426801e-01 7.500000e-01 -1.454205e-02 1.464082e-01 7.996747e+02 2.753826e-01 0.000000e+00 1.131973e-01 -999 -999 -999
4.400799e-01 7.500000e-01 -1.264859e-02 2.911846e-01 8.031674e+02 3.511114e-01 0.000000e+00 1.000156e-01 -999 -999 -999
4.380649e-01 7.500000e-01 -1.081051e-02 4.280989e-01 7.672808e+02 4.169135e-01 0.000000e+00 8.861307e-02 -999 -999 -999
4.365094e-01 7.500000e-01 -9.055544e-03 5.459312e-01 7.260754e+02 4.722118e-01 0.000000e+00 8.125494e-02 -999 -999 -999
4.353191e-01 7.500000e-01 -7.387656e-03 6.401159e-01 7.011471e+02 5.195760e-01 0.000000e+00 7.894824e-02 -999 -999 -999
4.344245e-01 7.500000e-01 -5.802269e-03 7.058135e-01 6.765933e+02 5.588660e-01 0.000000e+00 7.985751e-02 -999 -999 -999
4.337748e-01 7.500000e-01 -4.287821e-03 7.427078e-01 6.466833e+02 5.902786e-01 0.000000e+00 8.339717e-02 -999 -999 -999
4.333342e-01 7.500000e-01 -2.841431e-03 7.511950e-01 6.128777e+02 6.149389e-01 0.000000e+00 9.506032e-02 -999 -999 -999
4.330789e-01 7.500000e-01 -1.463393e-03 7.262253e-01 6.128777e+02 6.149389e-01 0.000000e+00 9.506032e-02 -999 -999 -999
4.329952e-01 7.500000e-01 0.000000e+00 6.734104e-01 5.785923e+02 6.294339e-01 0.000000e+00 1.188788e-01 -999 -999 -999
4.330789e-01 7.500000e-01 1.463393e-03 5.902994e-01 5.486071e+02 6.329031e-01 0.000000e+00 1.613275e-01 -999 -999 -999
4.333342e-01 7.500000e-01 2.841431e-03 4.786393e-01 5.323756e+02 6.275725e-01 0.000000e+00 2.458031e-01 -999 -999 -999
4.337748e-01 7.500000e-01 4.287821e-03 3.506647e-01 5.337518e+02 6.142547e-01 0.000000e+00 2.212949e-01 -999 -999 -999
4.344245e-01 7.500000e-01 5.802269e-03 1.994252e-01 5.398435e+02 5.928869e-01 0.000000e+00 1.465984e-01 -999 -999 -999
4.353191e-01 7.500000e-01 7.387656e-03 2.887847e-02 5.548251e+02 5.630428e-01 0.000000e+00 1.170782e-01 -999 -999 -999
4.365094e-01 7.500000e-01 9.055544e-03 -1.523479e-01 5.907668e+02 5.245994e-01 0.000000e+00 1.064716e-01 -999 -999 -999
4.380649e-01 7.500000e-01 1.081051e-02 -3.395374e-01 6.271713e+02 4.769534e-01 0.000000e+00 1.041588e-01 -999 -999 -999
4.400799e-01 7.500000e-01 1.264859e-02 -5.312482e-01 6.387982e+02 4.183629e-01 0.000000e+00 1.046793e-01 -999 -999 -999
4.426801e-01 7.500000e-01 1.454205e-02 -6.990461e-01 6.303518e+02 3.474575e-01 0.000000e+00 1.078310e-01 -999 -999 -999
4.460326e-01 7.500000e-01 1.644255e-02 -8.119366e-01 6.032347e+02 2.642154e-01 0.000000e+00 1.138640e-01 -999 -999 -999
4.503581e-01 7.500000e-01 1.827398e-02 -8.378183e-01 5.550737e+02 1.750714e-01 0.000000e+00 1.238703e-01 -999 -999 -999
4.559461e-01 7.500000e-01 1.996854e-02 -7.763047e-01 4.994220e+02 9.519485e-02 0.000000e+00 1.425264e-01 -999 -999 -999
4.631719e-01 7.500000e-01 2.152496e-02 -6.613340e-01 4.525672e+02 4.378091e-02 0.000000e+00 1.800800e-01 -999 -999 -999
4.725153e-01 7.500000e-01 2.309523e-02 -5.439970e-01 4.225751e+02 2.214532e-02 0.000000e+00 2.562954e-01 -999 -999 -999
4.845757e-01 7.500000e-01 2.487543e-02 -4.663615e-01 4.039101e+02 1.180308e-02 0.000000e+00 4.249796e-01 -999 -999 -999
5.000784e-01 7.500000e-01 2.687368e-02 -4.225903e-01 3.873840e+02 4.998929e-03 0.000000e+00 8.480841e-01 -999 -999 -999
5.198590e-01 7.500000e-01 2.902748e-02 -3.925294e-01 3.705842e+02 1.342281e-03 1.080618e+00 0.000000e+00 -999 -999 -999
5.448107e-01 7.500000e-01 3.124236e-02 -3.674461e-01 3.563921e+02 1.362067e-04 1.629169e+00 0.000000e+00 -999 -999 -999
5.757751e-01 7.500000e-01 3.340105e-02 -3.455175e-01 3.449317e+02 0.000000e+00 1.693927e+00 0.000000e+00 -999 -999 -999
6.133652e-01 7.500000e-01 3.536490e-02 -3.275569e-01 3.343568e+02 0.000000e+00 1.693927e+00 0.000000e+00 -999 -999 -999
6.577321e-01 7.500000e-01 3.693620e-02 -3.138505e-01 3.239911e+02 0.000000e+00 1.693927e+00 0.000000e+00 -999 -999 -999
7.083270e-01 7.500000e-01 3.779192e-02 -3.015369e-01 3.133698e+02 0.000000e+00 1.693927e+00 0.000000e+00 -999 -999 -999
7.637580e-01 7.500000e-01 3.750000e-02 -2.835668e-01 3.016865e+02 0.000000e+00 1.693927e+00 0.000000e+00 -999 -999 -999
8.218472e-01 7.500000e-01 3.574249e-02 -2.531549e-01 2.875605e+02 0.000000e+00 1.693927e+00 0.000000e+00 -999 -999 -999
8.799365e-01 7.500000e-01 3.261268e-02 -2.103130e-01 2.713954e+02 0.000000e+00 1.693927e+00 0.000000e+00 -999 -999 -999
9.353675e-01 7.500000e-01 2.863599e-02 -1.627915e-01 2.554784e+02 0.000000e+00 1.693927e+00 0.000000e+00 -999 -999 -999
9.859624e-01 7.500000e-01 2.443415e-02 -1.191445e-01 2.422352e+02 0.000000e+00 1.693927e+00 0.000000e+00 -999 -999 -999
1.030329e+00 7.500000e-01 2.041185e-02 -8.193264e-02 2.328708e+02 0.000000e+00 1.693927e+00 0.000000e+00 -999 -999 -999
1.067919e+00 7.500000e-01 1.673570e-02 -4.897890e-02 2.258553e+02 0.000000e+00 1.693927e+00 0.000000e+00 -999 -999 -999
1.098884e+00 7.500000e-01 1.346785e-02 -1.793547e-02 2.187511e+02 0.000000e+00 1.693927e+00 0.000000e+00 -999 -999 -999
1.123835e+00 7.500000e-01 1.064891e-02 1.160172e-02 2.118772e+02 0.000000e+00 1.693927e+00 0.000000e+00 -999 -999 -999
1.143616e+00 7.500000e-01 8.298819e-03 3.831176e-02 2.065204e+02 0.000000e+00 1.693927e+00 0.000000e+00 -999 -999 -999
1.159119e+00 7.500000e-01 6.402219e-03 6.085967e-02 2.026614e+02 0.000000e+00 1.693927e+00 0.000000e+00 -999 -999 -999
1.171179e+00 7.500000e-01 4.910139e-03 7.915211e-02 1.991709e+02 0.000000e+00 1.693927e+00 0.000000e+00 -999 -999 -999
1.180523e+00 7.500000e-01 3.760022e-03 9.358190e-02 1.948341e+02 0.000000e+00 1.693927e+00 0.000000e+00 -999 -999 -999
1.187748e+00 7.500000e-01 2.874565e-03 1.048933e-01 1.908103e+02 0.000000e+00 1.693927e+00 0.000000e+00 -999 -999 -999
1.193336e+00 7.500000e-01 2.187200e-03 1.139016e-01 1.870830e+02 0.000000e+00 1.693927e+00 0.000000e+00 -999 -999 -999
1.197662e+00 7.500000e-01 1.651209e-03 1.212319e-01 1.836106e+02 0.000000e+00 1.693927e+00 0.000000e+00 -999 -999 -999
1.201014e+00 7.500000e-01 1.232351e-03 1.272209e-01 1.805331e+02 0.000000e+00 1.693927e+00 0.000000e+00 -999 -999 -999
1.203614e+00 7.500000e-01 9.049080e-04 1.321786e-01 1.777116e+02 0.000000e+00 1.693927e+00 0.000000e+00 -999 -999 -999
1.205629e+00 7.500000e-01 6.493704e-04 1.362627e-01 1.750749e+02 0.000000e+00 1.693927e+00 0.000000e+00 -999 -999 -999
1.207185e+00 7.500000e-01 4.509226e-04 1.397076e-01 1.724835e+02 0.000000e+00 1.693927e+00 0.000000e+00 -999 -999 -999
1.208375e+00 7.500000e-01 2.984709e-04 1.425163e-01 1.699162e+02 0.000000e+00 1.693927e+00 0.000000e+00 -999 -999 -999
1.209270e+00 7.500000e-01 1.836552e-04 1.448908e-01 1.678714e+02 0.000000e+00 1.693927e+00 0.000000e+00 -999 -999 -999
1.209920e+00 7.500000e-01 1.001948e-04 1.468176e-01 1.634472e+02 0.000000e+00 1.693927e+00 0.000000e+00 -999 -999 -999
1.210360e+00 7.500000e-01 4.356982e-05 1.481860e-01 1.678746e+02 0.000000e+00 1.693927e+00 0.000000e+00 -999 -999 -999
1.210616e+00 7.500000e-01 1.075092e-05 1.497397e-01 1.925689e+02 0.000000e+00 1.693927e+00 0.000000e+00 -999 -999 -999

ZONE T="SLICE_Y_1p40_BINS07_KS_0p5mm_CUTDATA"
1.393305e+00 1.400000e+00 0.000000e+00 1.398227e-01 2.265848e+02 0.000000e+00 1.693927e+00 0.000000e+00 -999 -999 -999
1.393242e+00 1.400000e+00 -8.087650e-06 1.406687e-01 1.704077e+02 0.000000e+00 1.693927e+00 0.000000e+00 -999 -999 -999
1.393050e+00 1.400000e+00 -3.277650e-05 1.394621e-01 1.455453e+02 0.000000e+00 1.693927e+00 0.000000e+00 -999 -999 -999
1.392719e+00 1.400000e+00 -7.537404e-05 1.383513e-01 1.454227e+02 0.000000e+00 1.693927e+00 0.000000e+00 -999 -999 -999
1.392230e+00 1.400000e+00 -1.381592e-04 1.363083e-01 1.488217e+02 0.000000e+00 1.693927e+00 0.000000e+00 -999 -999 -999
1.391557e+00 1.400000e+00 -2.245322e-04 1.337538e-01 1.509887e+02 0.000000e+00 1.693927e+00 0.000000e+00 -999 -999 -999
1.390662e+00 1.400000e+00 -3.392178e-04 1.307188e-01 1.538720e+02 0.000000e+00 1.693927e+00 0.000000e+00 -999 -999 -999
1.389491e+00 1.400000e+00 -4.885052e-04 1.270757e-01 1.538720e+02 0.000000e+00 1.693927e+00 0.000000e+00 -999 -999 -999
1.387975e+00 1.400000e+00 -6.807398e-04 1.228250e-01 1.563929e+02 0.000000e+00 1.693927e+00 0.000000e+00 -999 -999 -999
1.386019e+00 1.400000e+00 -9.270669e-04 1.177560e-01 1.589933e+02 0.000000e+00 1.693927e+00 0.000000e+00 -999 -999 -999
1.383497e+00 1.400000e+00 -1.242164e-03 1.117757e-01 1.616762e+02 0.000000e+00 1.693927e+00 0.000000e+00 -999 -999 -999
1.380243e+00 1.400000e+00 -1.645376e-03 1.046493e-01 1.644797e+02 0.000000e+00 1.693927e+00 0.000000e+00 -999 -999 -999
1.376040e+00 1.400000e+00 -2.162464e-03 9.614303e-02 1.674500e+02 0.000000e+00 1.693927e+00 0.000000e+00 -999 -999 -999
1.370604e+00 1.400000e+00 -2.828571e-03 8.574226e-02 1.705049e+02 0.000000e+00 1.693927e+00 0.000000e+00 -999 -999 -999
1.363575e+00 1.400000e+00 -3.693776e-03 7.280094e-02 1.738722e+02 0.000000e+00 1.693927e+00 0.000000e+00 -999 -999 -999
1.354502e+00 1.400000e+00 -4.816230e-03 5.697192e-02 1.780939e+02 0.000000e+00 1.693927e+00 0.000000e+00 -999 -999 -999
1.342840e+00 1.400000e+00 -6.242995e-03 3.826186e-02 1.822812e+02 0.000000e+00 1.693927e+00 0.000000e+00 -999 -999 -999
1.327960e+00 1.400000e+00 -8.010908e-03 1.744809e-02 1.867127e+02 0.000000e+00 1.693927e+00 0.000000e+00 -999 -999 -999
1.309189e+00 1.400000e+00 -1.013153e-02 -3.868731e-03 1.924419e+02 0.000000e+00 1.693927e+00 0.000000e+00 -999 -999 -999
1.285895e+00 1.400000e+00 -1.258985e-02 -2.439852e-02 1.995473e+02 0.000000e+00 1.693927e+00 0.000000e+00 -999 -999 -999
1.257617e+00 1.400000e+00 -1.535533e-02 -4.469326e-02 2.084207e+02 0.000000e+00 1.693927e+00 0.000000e+00 -999 -999 -999
1.224241e+00 1.400000e+00 -1.838120e-02 -6.740167e-02 2.192436e+02 0.000000e+00 1.693927e+00 0.000000e+00 -999 -999 -999
1.186180e+00 1.400000e+00 -2.154215e-02 -9.474616e-02 2.320136e+02 0.000000e+00 1.693927e+00 0.000000e+00 -999 -999 -999
1.144481e+00 1.400000e+00 -2.453371e-02 -1.248141e-01 2.458540e+02 0.000000e+00 1.693927e+00 0.000000e+00 -999 -999 -999
1.100781e+00 1.400000e+00 -2.688819e-02 -1.507957e-01 2.614032e+02 0.000000e+00 1.693927e+00 0.000000e+00 -999 -999 -999
1.057082e+00 1.400000e+00 -2.821031e-02 -1.649639e-01 2.801198e+02 0.000000e+00 1.693927e+00 0.000000e+00 -999 -999 -999
1.015383e+00 1.400000e+00 -2.842992e-02 -1.672557e-01 2.995036e+02 0.000000e+00 1.693927e+00 0.000000e+00 -999 -999 -999
9.773217e-01 1.400000e+00 -2.778619e-02 -1.644811e-01 3.163841e+02 0.000000e+00 1.693927e+00 0.000000e+00 -999 -999 -999
9.439456e-01 1.400000e+00 -2.660414e-02 -1.612489e-01 3.317798e+02 0.000000e+00 1.693927e+00 0.000000e+00 -999 -999 -999
9.156675e-01 1.400000e+00 -2.512678e-02 -1.580557e-01 3.486252e+02 0.000000e+00 1.693927e+00 0.000000e+00 -999 -999 -999
8.923738e-01 1.400000e+00 -2.350285e-02 -1.530087e-01 3.680695e+02 0.000000e+00 1.693927e+00 0.000000e+00 -999 -999 -999
8.736032e-01 1.400000e+00 -2.183665e-02 -1.443876e-01 3.893128e+02 0.000000e+00 1.693927e+00 0.000000e+00 -999 -999 -999
8.587228e-01 1.400000e+00 -2.021640e-02 -1.330805e-01 4.110610e+02 0.000000e+00 1.693927e+00 0.000000e+00 -999 -999 -999
8.470605e-01 1.400000e+00 -1.871317e-02 -1.244619e-01 4.324613e+02 0.000000e+00 1.693927e+00 0.000000e+00 -999 -999 -999
8.379877e-01 1.400000e+00 -1.737397e-02 -1.305857e-01 4.518225e+02 0.000000e+00 1.693927e+00 0.000000e+00 -999 -999 -999
8.309589e-01 1.400000e+00 -1.619270e-02 -1.534306e-01 4.747300e+02 0.000000e+00 0.000000e+00 8.510124e-01 -999 -999 -999
8.255231e-01 1.400000e+00 -1.502184e-02 -1.649298e-01 5.169884e+02 7.345927e-05 0.000000e+00 4.134937e-01 -999 -999 -999
8.213194e-01 1.400000e+00 -1.374706e-02 -1.302208e-01 5.910361e+02 7.991111e-03 0.000000e+00 2.535084e-01 -999 -999 -999
8.180654e-01 1.400000e+00 -1.236932e-02 -3.940185e-02 6.835177e+02 5.725529e-02 0.000000e+00 1.861453e-01 -999 -999 -999
8.155434e-01 1.400000e+00 -1.093962e-02 9.244917e-02 7.712808e+02 1.473828e-01 0.000000e+00 1.522775e-01 -999 -999 -999
8.135874e-01 1.400000e+00 -9.515221e-03 2.395406e-01 8.424088e+02 2.436826e-01 0.000000e+00 1.327829e-01 -999 -999 -999
8.120716e-01 1.400000e+00 -8.132475e-03 3.794960e-01 8.791873e+02 3.300551e-01 0.000000e+00 1.185013e-01 -999 -999 -999
8.109014e-01 1.400000e+00 -6.812261e-03 5.013568e-01 8.882583e+02 4.045147e-01 0.000000e+00 1.075630e-01 -999 -999 -999
8.100060e-01 1.400000e+00 -5.557550e-03 5.997721e-01 8.833643e+02 4.677107e-01 0.000000e+00 9.958053e-02 -999 -999 -999
8.093330e-01 1.400000e+00 -4.364903e-03 6.690981e-01 8.690834e+02 5.213428e-01 0.000000e+00 9.375786e-02 -999 -999 -999
8.088443e-01 1.400000e+00 -3.225621e-03 7.105417e-01 8.460312e+02 5.673221e-01 0.000000e+00 9.100980e-02 -999 -999 -999
8.085128e-01 1.400000e+00 -2.137538e-03 7.245039e-01 8.154069e+02 6.051321e-01 0.000000e+00 9.123064e-02 -999 -999 -999
8.083207e-01 1.400000e+00 -1.100874e-03 7.041616e-01 7.805644e+02 6.353135e-01 0.000000e+00 9.465271e-02 -999 -999 -999
8.082578e-01 1.400000e+00 0.000000e+00 6.570896e-01 7.369385e+02 6.586402e-01 0.000000e+00 1.063525e-01 -999 -999 -999
8.083207e-01 1.400000e+00 1.100874e-03 5.806446e-01 6.901663e+02 6.722540e-01 0.000000e+00 1.302268e-01 -999 -999 -999
8.085128e-01 1.400000e+00 2.137538e-03 4.737621e-01 6.478726e+02 6.750273e-01 0.000000e+00 1.729522e-01 -999 -999 -999
8.088443e-01 1.400000e+00 3.225621e-03 3.494951e-01 6.240441e+02 6.687425e-01 0.000000e+00 2.285673e-01 -999 -999 -999
8.093330e-01 1.400000e+00 4.364903e-03 2.030778e-01 6.300387e+02 6.544143e-01 0.000000e+00 1.939916e-01 -999 -999 -999
8.100060e-01 1.400000e+00 5.557550e-03 3.884981e-02 6.490013e+02 6.321896e-01 0.000000e+00 1.427596e-01 -999 -999 -999