VARIABLES = "X_ICED" "Y_ICED" "Z_ICED"

ZONE T="SLICE_Y_0p10_BINS07_KS_0p5mm_SINGLE_LAYER"
1.028093e+00 1.000000e-01 0.000000e+00
1.028087e+00 1.000000e-01 8.349693e-07
1.028067e+00 1.000000e-01 3.342607e-06
1.028035e+00 1.000000e-01 7.531112e-06
1.027989e+00 1.000000e-01 1.341419e-05
1.027930e+00 1.000000e-01 2.101112e-05
1.027857e+00 1.000000e-01 3.034682e-05
1.027771e+00 1.000000e-01 4.145197e-05
1.027670e+00 1.000000e-01 5.436315e-05
1.027555e+00 1.000000e-01 6.912300e-05
1.027426e+00 1.000000e-01 8.578036e-05
1.027281e+00 1.000000e-01 1.043905e-04
1.027121e+00 1.000000e-01 1.250155e-04
1.026944e+00 1.000000e-01 1.477242e-04
1.026750e+00 1.000000e-01 1.725926e-04
1.026539e+00 1.000000e-01 1.997044e-04
1.026310e+00 1.000000e-01 2.291511e-04
1.026062e+00 1.000000e-01 2.610323e-04
1.025793e+00 1.000000e-01 2.954562e-04
1.025505e+00 1.000000e-01 3.325398e-04
1.025194e+00 1.000000e-01 3.724096e-04
1.024860e+00 1.000000e-01 4.152017e-04
1.024502e+00 1.000000e-01 4.610623e-04
1.024119e+00 1.000000e-01 5.101483e-04
1.023709e+00 1.000000e-01 5.626273e-04
1.023270e+00 1.000000e-01 6.186780e-04
1.022802e+00 1.000000e-01 6.784907e-04
1.022301e+00 1.000000e-01 7.422688e-04
1.021768e+00 1.000000e-01 8.102357e-04
1.021198e+00 1.000000e-01 8.826321e-04
1.020591e+00 1.000000e-01 9.597164e-04
1.019944e+00 1.000000e-01 1.041766e-03
1.019254e+00 1.000000e-01 1.129076e-03
1.018518e+00 1.000000e-01 1.221966e-03
1.017734e+00 1.000000e-01 1.320775e-03
1.016899e+00 1.000000e-01 1.425868e-03
1.016009e+00 1.000000e-01 1.537635e-03
1.015061e+00 1.000000e-01 1.656493e-03
1.014051e+00 1.000000e-01 1.782891e-03
1.012974e+00 1.000000e-01 1.917307e-03
1.011826e+00 1.000000e-01 2.060255e-03
1.010603e+00 1.000000e-01 2.212287e-03
1.009300e+00 1.000000e-01 2.373994e-03
1.007910e+00 1.000000e-01 2.546012e-03
1.006429e+00 1.000000e-01 2.729024e-03
1.004850e+00 1.000000e-01 2.923768e-03
1.003166e+00 1.000000e-01 3.131037e-03
1.001371e+00 1.000000e-01 3.351693e-03
9.994569e-01 1.000000e-01 3.586666e-03
9.974155e-01 1.000000e-01 3.836972e-03
9.952385e-01 1.000000e-01 4.103714e-03
9.929169e-01 1.000000e-01 4.388104e-03
9.904411e-01 1.000000e-01 4.691473e-03
9.878008e-01 1.000000e-01 5.015289e-03
9.849854e-01 1.000000e-01 5.361184e-03
9.819835e-01 1.000000e-01 5.730975e-03
9.787831e-01 1.000000e-01 6.126503e-03
9.753716e-01 1.000000e-01 6.549003e-03
9.717358e-01 1.000000e-01 6.999406e-03
9.678617e-01 1.000000e-01 7.478677e-03
9.637350e-01 1.000000e-01 7.988208e-03
9.593406e-01 1.000000e-01 8.529421e-03
9.546628e-01 1.000000e-01 9.103589e-03
9.496854e-01 1.000000e-01 9.711728e-03
9.443919e-01 1.000000e-01 1.035464e-02
9.387652e-01 1.000000e-01 1.103309e-02
9.327879e-01 1.000000e-01 1.174771e-02
9.264424e-01 1.000000e-01 1.249890e-02
9.197111e-01 1.000000e-01 1.328691e-02
9.125763e-01 1.000000e-01 1.411173e-02
9.050205e-01 1.000000e-01 1.497310e-02
8.970267e-01 1.000000e-01 1.587076e-02
8.885783e-01 1.000000e-01 1.680418e-02
8.796596e-01 1.000000e-01 1.777269e-02
8.702562e-01 1.000000e-01 1.877564e-02
8.603546e-01 1.000000e-01 1.981221e-02
8.499432e-01 1.000000e-01 2.088155e-02
8.390124e-01 1.000000e-01 2.198275e-02
8.275545e-01 1.000000e-01 2.311491e-02
8.155648e-01 1.000000e-01 2.427716e-02
8.030411e-01 1.000000e-01 2.546838e-02
7.899846e-01 1.000000e-01 2.668718e-02
7.763999e-01 1.000000e-01 2.793166e-02
7.622955e-01 1.000000e-01 2.919939e-02
7.476835e-01 1.000000e-01 3.048709e-02
7.325806e-01 1.000000e-01 3.179040e-02
7.170074e-01 1.000000e-01 3.310362e-02
7.009891e-01 1.000000e-01 3.441962e-02
6.845550e-01 1.000000e-01 3.572984e-02
6.677388e-01 1.000000e-01 3.702416e-02
6.505781e-01 1.000000e-01 3.829103e-02
6.331143e-01 1.000000e-01 3.951791e-02
6.153924e-01 1.000000e-01 4.069165e-02
5.974600e-01 1.000000e-01 4.179886e-02
5.793676e-01 1.000000e-01 4.282642e-02
5.611674e-01 1.000000e-01 4.376246e-02
5.429130e-01 1.000000e-01 4.459679e-02
5.246585e-01 1.000000e-01 4.532120e-02
5.064583e-01 1.000000e-01 4.592982e-02
4.883659e-01 1.000000e-01 4.641940e-02
4.704336e-01 1.000000e-01 4.678968e-02
4.527116e-01 1.000000e-01 4.704323e-02
4.352478e-01 1.000000e-01 4.718403e-02
4.180871e-01 1.000000e-01 4.721828e-02
4.012709e-01 1.000000e-01 4.715391e-02
3.848368e-01 1.000000e-01 4.699954e-02
3.688185e-01 1.000000e-01 4.676412e-02
3.532453e-01 1.000000e-01 4.645672e-02
3.381424e-01 1.000000e-01 4.608622e-02
3.235304e-01 1.000000e-01 4.566082e-02
3.094260e-01 1.000000e-01 4.518796e-02
2.958413e-01 1.000000e-01 4.467424e-02
2.827848e-01 1.000000e-01 4.412567e-02
2.702611e-01 1.000000e-01 4.354725e-02
2.582714e-01 1.000000e-01 4.294361e-02
2.468135e-01 1.000000e-01 4.231845e-02
2.358827e-01 1.000000e-01 4.167532e-02
2.254713e-01 1.000000e-01 4.101728e-02
2.155697e-01 1.000000e-01 4.034722e-02
2.061663e-01 1.000000e-01 3.966797e-02
1.972477e-01 1.000000e-01 3.898187e-02
1.887993e-01 1.000000e-01 3.829144e-02
1.808054e-01 1.000000e-01 3.759919e-02
1.732496e-01 1.000000e-01 3.690738e-02
1.661147e-01 1.000000e-01 3.621870e-02
1.593830e-01 1.000000e-01 3.553762e-02
1.530355e-01 1.000000e-01 3.487487e-02
1.470514e-01 1.000000e-01 3.425621e-02
1.414082e-01 1.000000e-01 3.373292e-02
1.360877e-01 1.000000e-01 3.338717e-02
1.310900e-01 1.000000e-01 3.332506e-02
1.264511e-01 1.000000e-01 3.365056e-02
1.222360e-01 1.000000e-01 3.442035e-02
1.184723e-01 1.000000e-01 3.559007e-02
1.150480e-01 1.000000e-01 3.699999e-02
1.117143e-01 1.000000e-01 3.843441e-02
1.082551e-01 1.000000e-01 3.970160e-02
1.046464e-01 1.000000e-01 4.069176e-02
1.010297e-01 1.000000e-01 4.139844e-02
9.756123e-02 1.000000e-01 4.188069e-02
9.431353e-02 1.000000e-01 4.219794e-02
9.127760e-02 1.000000e-01 4.237953e-02
8.840885e-02 1.000000e-01 4.243492e-02
8.566318e-02 1.000000e-01 4.237063e-02
8.301046e-02 1.000000e-01 4.219570e-02
8.043281e-02 1.000000e-01 4.191941e-02
7.791978e-02 1.000000e-01 4.154914e-02
7.546675e-02 1.000000e-01 4.109029e-02
7.307406e-02 1.000000e-01 4.054717e-02
7.074548e-02 1.000000e-01 3.992336e-02
6.848748e-02 1.000000e-01 3.922233e-02
6.630776e-02 1.000000e-01 3.844822e-02
6.421361e-02 1.000000e-01 3.760599e-02
6.221177e-02 1.000000e-01 3.670155e-02
6.030794e-02 1.000000e-01 3.574158e-02
5.850607e-02 1.000000e-01 3.473295e-02
5.680878e-02 1.000000e-01 3.368268e-02
5.521725e-02 1.000000e-01 3.259782e-02
5.373052e-02 1.000000e-01 3.148467e-02
5.234692e-02 1.000000e-01 3.034935e-02
5.106440e-02 1.000000e-01 2.919805e-02
4.988009e-02 1.000000e-01 2.803645e-02
4.879079e-02 1.000000e-01 2.686992e-02
4.779280e-02 1.000000e-01 2.570344e-02
4.688119e-02 1.000000e-01 2.454047e-02
4.605118e-02 1.000000e-01 2.338414e-02
4.529822e-02 1.000000e-01 2.223756e-02
4.461730e-02 1.000000e-01 2.110259e-02
4.400406e-02 1.000000e-01 1.998129e-02
4.345434e-02 1.000000e-01 1.887592e-02
4.296363e-02 1.000000e-01 1.778765e-02
4.252798e-02 1.000000e-01 1.671840e-02
4.214343e-02 1.000000e-01 1.566975e-02
4.180584e-02 1.000000e-01 1.464209e-02
4.151160e-02 1.000000e-01 1.363684e-02
4.125660e-02 1.000000e-01 1.265303e-02
4.103728e-02 1.000000e-01 1.168899e-02
4.085106e-02 1.000000e-01 1.074567e-02
4.069559e-02 1.000000e-01 9.825589e-03
4.056873e-02 1.000000e-01 8.932526e-03
4.046686e-02 1.000000e-01 8.059609e-03
4.038673e-02 1.000000e-01 7.196372e-03
4.032764e-02 1.000000e-01 6.350287e-03
4.028896e-02 1.000000e-01 5.547014e-03
4.026590e-02 1.000000e-01 4.783493e-03
4.025540e-02 1.000000e-01 3.980510e-03
4.026300e-02 1.000000e-01 3.143539e-03
4.028288e-02 1.000000e-01 2.451114e-03
4.030522e-02 1.000000e-01 1.846929e-03
4.035750e-02 1.000000e-01 9.022514e-04
4.044498e-02 1.000000e-01 -1.554347e-04
4.052021e-02 1.000000e-01 -8.687907e-04
4.054754e-02 1.000000e-01 -1.109362e-03
4.054754e-02 1.000000e-01 -1.109362e-03
4.057505e-02 1.000000e-01 -1.348660e-03
4.066155e-02 1.000000e-01 -2.046723e-03
4.080795e-02 1.000000e-01 -3.055599e-03
4.095772e-02 1.000000e-01 -3.934455e-03
4.105901e-02 1.000000e-01 -4.485257e-03
4.117921e-02 1.000000e-01 -5.105791e-03
4.133507e-02 1.000000e-01 -5.843568e-03
4.149419e-02 1.000000e-01 -6.540335e-03
4.165272e-02 1.000000e-01 -7.194285e-03
4.182822e-02 1.000000e-01 -7.875179e-03
4.202347e-02 1.000000e-01 -8.585737e-03
4.223356e-02 1.000000e-01 -9.304730e-03
4.245760e-02 1.000000e-01 -1.002694e-02
4.269925e-02 1.000000e-01 -1.076205e-02
4.296167e-02 1.000000e-01 -1.151656e-02
4.324568e-02 1.000000e-01 -1.228828e-02
4.355259e-02 1.000000e-01 -1.307629e-02
4.388400e-02 1.000000e-01 -1.388109e-02
4.424263e-02 1.000000e-01 -1.470546e-02
4.463169e-02 1.000000e-01 -1.555171e-02
4.505390e-02 1.000000e-01 -1.642016e-02
4.551277e-02 1.000000e-01 -1.731182e-02
4.601177e-02 1.000000e-01 -1.822641e-02
4.655468e-02 1.000000e-01 -1.916307e-02
4.714604e-02 1.000000e-01 -2.012132e-02
4.779019e-02 1.000000e-01 -2.109955e-02
4.849174e-02 1.000000e-01 -2.209616e-02
4.925592e-02 1.000000e-01 -2.310970e-02
5.008760e-02 1.000000e-01 -2.413759e-02
5.099193e-02 1.000000e-01 -2.517727e-02
5.197434e-02 1.000000e-01 -2.622598e-02
5.303934e-02 1.000000e-01 -2.727960e-02
5.419125e-02 1.000000e-01 -2.833363e-02
5.543438e-02 1.000000e-01 -2.938324e-02
5.677248e-02 1.000000e-01 -3.042309e-02
5.820918e-02 1.000000e-01 -3.144771e-02
5.974763e-02 1.000000e-01 -3.245133e-02
6.138914e-02 1.000000e-01 -3.342721e-02
6.313377e-02 1.000000e-01 -3.436836e-02
6.498029e-02 1.000000e-01 -3.526774e-02
6.692548e-02 1.000000e-01 -3.611835e-02
6.896443e-02 1.000000e-01 -3.691394e-02
7.109042e-02 1.000000e-01 -3.764934e-02
7.329446e-02 1.000000e-01 -3.832066e-02
7.556623e-02 1.000000e-01 -3.892567e-02
7.789523e-02 1.000000e-01 -3.946374e-02
8.027191e-02 1.000000e-01 -3.993592e-02
8.269006e-02 1.000000e-01 -4.034544e-02
8.514876e-02 1.000000e-01 -4.069783e-02
8.765344e-02 1.000000e-01 -4.100113e-02
9.021742e-02 1.000000e-01 -4.126579e-02
9.286242e-02 1.000000e-01 -4.150426e-02
9.561739e-02 1.000000e-01 -4.172978e-02
9.851748e-02 1.000000e-01 -4.195408e-02
1.016026e-01 1.000000e-01 -4.218433e-02
1.049162e-01 1.000000e-01 -4.242021e-02
1.085081e-01 1.000000e-01 -4.265114e-02
1.124313e-01 1.000000e-01 -4.285028e-02
1.167268e-01 1.000000e-01 -4.296226e-02
1.213907e-01 1.000000e-01 -4.289109e-02
1.263408e-01 1.000000e-01 -4.251384e-02
1.314301e-01 1.000000e-01 -4.174143e-02
1.365457e-01 1.000000e-01 -4.060283e-02
1.417286e-01 1.000000e-01 -3.927864e-02
1.471599e-01 1.000000e-01 -3.804734e-02
1.530071e-01 1.000000e-01 -3.716615e-02
1.593191e-01 1.000000e-01 -3.675845e-02
1.660676e-01 1.000000e-01 -3.678959e-02
1.732263e-01 1.000000e-01 -3.713911e-02
1.807968e-01 1.000000e-01 -3.767878e-02
1.887968e-01 1.000000e-01 -3.831357e-02
1.972472e-01 1.000000e-01 -3.898640e-02
2.061662e-01 1.000000e-01 -3.966854e-02
2.155697e-01 1.000000e-01 -4.034723e-02
2.254713e-01 1.000000e-01 -4.101728e-02
2.358827e-01 1.000000e-01 -4.167532e-02
2.468135e-01 1.000000e-01 -4.231845e-02
2.582714e-01 1.000000e-01 -4.294361e-02
2.702611e-01 1.000000e-01 -4.354725e-02
2.827848e-01 1.000000e-01 -4.412567e-02
2.958413e-01 1.000000e-01 -4.467424e-02
3.094260e-01 1.000000e-01 -4.518796e-02
3.235304e-01 1.000000e-01 -4.566082e-02
3.381424e-01 1.000000e-01 -4.608622e-02
3.532453e-01 1.000000e-01 -4.645672e-02
3.688185e-01 1.000000e-01 -4.676412e-02
3.848368e-01 1.000000e-01 -4.699954e-02
4.012709e-01 1.000000e-01 -4.715391e-02
4.180871e-01 1.000000e-01 -4.721828e-02
4.352478e-01 1.000000e-01 -4.718403e-02
4.527116e-01 1.000000e-01 -4.704323e-02
4.704336e-01 1.000000e-01 -4.678968e-02
4.883659e-01 1.000000e-01 -4.641940e-02
5.064583e-01 1.000000e-01 -4.592982e-02
5.246585e-01 1.000000e-01 -4.532120e-02
5.429130e-01 1.000000e-01 -4.459679e-02
5.611674e-01 1.000000e-01 -4.376246e-02
5.793676e-01 1.000000e-01 -4.282642e-02
5.974600e-01 1.000000e-01 -4.179886e-02
6.153924e-01 1.000000e-01 -4.069165e-02
6.331143e-01 1.000000e-01 -3.951791e-02
6.505781e-01 1.000000e-01 -3.829103e-02
6.677388e-01 1.000000e-01 -3.702416e-02
6.845550e-01 1.000000e-01 -3.572984e-02
7.009891e-01 1.000000e-01 -3.441962e-02
7.170074e-01 1.000000e-01 -3.310362e-02
7.325806e-01 1.000000e-01 -3.179040e-02
7.476835e-01 1.000000e-01 -3.048709e-02
7.622955e-01 1.000000e-01 -2.919939e-02
7.763999e-01 1.000000e-01 -2.793166e-02
7.899846e-01 1.000000e-01 -2.668718e-02
8.030411e-01 1.000000e-01 -2.546838e-02
8.155648e-01 1.000000e-01 -2.427716e-02
8.275545e-01 1.000000e-01 -2.311491e-02
8.390124e-01 1.000000e-01 -2.198275e-02
8.499432e-01 1.000000e-01 -2.088155e-02
8.603546e-01 1.000000e-01 -1.981221e-02
8.702562e-01 1.000000e-01 -1.877564e-02
8.796596e-01 1.000000e-01 -1.777269e-02
8.885783e-01 1.000000e-01 -1.680418e-02
8.970267e-01 1.000000e-01 -1.587076e-02
9.050205e-01 1.000000e-01 -1.497310e-02
9.125763e-01 1.000000e-01 -1.411173e-02
9.197111e-01 1.000000e-01 -1.328691e-02
9.264424e-01 1.000000e-01 -1.249890e-02
9.327879e-01 1.000000e-01 -1.174771e-02
9.387652e-01 1.000000e-01 -1.103309e-02
9.443919e-01 1.000000e-01 -1.035464e-02
9.496854e-01 1.000000e-01 -9.711728e-03
9.546628e-01 1.000000e-01 -9.103589e-03
9.593406e-01 1.000000e-01 -8.529421e-03
9.637350e-01 1.000000e-01 -7.988208e-03
9.678617e-01 1.000000e-01 -7.478677e-03
9.717358e-01 1.000000e-01 -6.999406e-03
9.753716e-01 1.000000e-01 -6.549003e-03
9.787831e-01 1.000000e-01 -6.126503e-03
9.819835e-01 1.000000e-01 -5.730975e-03
9.849854e-01 1.000000e-01 -5.361184e-03
9.878008e-01 1.000000e-01 -5.015289e-03
9.904411e-01 1.000000e-01 -4.691473e-03
9.929169e-01 1.000000e-01 -4.388104e-03
9.952385e-01 1.000000e-01 -4.103714e-03
9.974155e-01 1.000000e-01 -3.836972e-03
9.994569e-01 1.000000e-01 -3.586666e-03
1.001371e+00 1.000000e-01 -3.351693e-03
1.003166e+00 1.000000e-01 -3.131037e-03
1.004850e+00 1.000000e-01 -2.923768e-03
1.006429e+00 1.000000e-01 -2.729024e-03
1.007910e+00 1.000000e-01 -2.546012e-03
1.009300e+00 1.000000e-01 -2.373994e-03
1.010603e+00 1.000000e-01 -2.212287e-03
1.011826e+00 1.000000e-01 -2.060255e-03
1.012974e+00 1.000000e-01 -1.917307e-03
1.014051e+00 1.000000e-01 -1.782891e-03
1.015061e+00 1.000000e-01 -1.656493e-03
1.016009e+00 1.000000e-01 -1.537635e-03
1.016899e+00 1.000000e-01 -1.425868e-03
1.017734e+00 1.000000e-01 -1.320775e-03
1.018518e+00 1.000000e-01 -1.221966e-03
1.019254e+00 1.000000e-01 -1.129076e-03
1.019944e+00 1.000000e-01 -1.041766e-03
1.020591e+00 1.000000e-01 -9.597164e-04
1.021198e+00 1.000000e-01 -8.826321e-04
1.021768e+00 1.000000e-01 -8.102357e-04
1.022301e+00 1.000000e-01 -7.422688e-04
1.022802e+00 1.000000e-01 -6.784907e-04
1.023270e+00 1.000000e-01 -6.186780e-04
1.023709e+00 1.000000e-01 -5.626273e-04
1.024119e+00 1.000000e-01 -5.101483e-04
1.024502e+00 1.000000e-01 -4.610623e-04
1.024860e+00 1.000000e-01 -4.152017e-04
1.025194e+00 1.000000e-01 -3.724096e-04
1.025505e+00 1.000000e-01 -3.325398e-04
1.025793e+00 1.000000e-01 -2.954562e-04
1.026062e+00 1.000000e-01 -2.610323e-04
1.026310e+00 1.000000e-01 -2.291511e-04
1.026539e+00 1.000000e-01 -1.997044e-04
1.026750e+00 1.000000e-01 -1.725926e-04
1.026944e+00 1.000000e-01 -1.477242e-04
1.027121e+00 1.000000e-01 -1.250155e-04
1.027281e+00 1.000000e-01 -1.043905e-04
1.027426e+00 1.000000e-01 -8.578036e-05
1.027555e+00 1.000000e-01 -6.912300e-05
1.027670e+00 1.000000e-01 -5.436315e-05
1.027771e+00 1.000000e-01 -4.145197e-05
1.027857e+00 1.000000e-01 -3.034682e-05
1.027930e+00 1.000000e-01 -2.101112e-05
1.027989e+00 1.000000e-01 -1.341419e-05
1.028035e+00 1.000000e-01 -7.531112e-06
1.028067e+00 1.000000e-01 -3.342607e-06
1.028087e+00 1.000000e-01 -8.349693e-07

ZONE T="SLICE_Y_0p75_BINS07_KS_0p5mm_SINGLE_LAYER"
1.210699e+00 7.500000e-01 0.000000e+00
1.210694e+00 7.500000e-01 6.691935e-07
1.210678e+00 7.500000e-01 2.678961e-06
1.210652e+00 7.500000e-01 6.035875e-06
1.210616e+00 7.500000e-01 1.075092e-05
1.210568e+00 7.500000e-01 1.683954e-05
1.210510e+00 7.500000e-01 2.432172e-05
1.210441e+00 7.500000e-01 3.322204e-05
1.210360e+00 7.500000e-01 4.356982e-05
1.210268e+00 7.500000e-01 5.539923e-05
1.210164e+00 7.500000e-01 6.874942e-05
1.210048e+00 7.500000e-01 8.366471e-05
1.209920e+00 7.500000e-01 1.001948e-04
1.209778e+00 7.500000e-01 1.183948e-04
1.209623e+00 7.500000e-01 1.383258e-04
1.209454e+00 7.500000e-01 1.600549e-04
1.209270e+00 7.500000e-01 1.836552e-04
1.209071e+00 7.500000e-01 2.092066e-04
1.208856e+00 7.500000e-01 2.367959e-04
1.208624e+00 7.500000e-01 2.665169e-04
1.208375e+00 7.500000e-01 2.984709e-04
1.208108e+00 7.500000e-01 3.327670e-04
1.207821e+00 7.500000e-01 3.695224e-04
1.207514e+00 7.500000e-01 4.088629e-04
1.207185e+00 7.500000e-01 4.509226e-04
1.206834e+00 7.500000e-01 4.958449e-04
1.206458e+00 7.500000e-01 5.437823e-04
1.206057e+00 7.500000e-01 5.948978e-04
1.205629e+00 7.500000e-01 6.493704e-04
1.205173e+00 7.500000e-01 7.073932e-04
1.204686e+00 7.500000e-01 7.691731e-04
1.204168e+00 7.500000e-01 8.349322e-04
1.203614e+00 7.500000e-01 9.049080e-04
1.203025e+00 7.500000e-01 9.793554e-04
1.202397e+00 7.500000e-01 1.058547e-03
1.201728e+00 7.500000e-01 1.142774e-03
1.201014e+00 7.500000e-01 1.232351e-03
1.200254e+00 7.500000e-01 1.327611e-03
1.199445e+00 7.500000e-01 1.428913e-03
1.198582e+00 7.500000e-01 1.536642e-03
1.197662e+00 7.500000e-01 1.651209e-03
1.196682e+00 7.500000e-01 1.773057e-03
1.195637e+00 7.500000e-01 1.902658e-03
1.194523e+00 7.500000e-01 2.040523e-03
1.193336e+00 7.500000e-01 2.187200e-03
1.192071e+00 7.500000e-01 2.343279e-03
1.190721e+00 7.500000e-01 2.509397e-03
1.189283e+00 7.500000e-01 2.686243e-03
1.187748e+00 7.500000e-01 2.874565e-03
1.186112e+00 7.500000e-01 3.075174e-03
1.184367e+00 7.500000e-01 3.288958e-03
1.182507e+00 7.500000e-01 3.516885e-03
1.180523e+00 7.500000e-01 3.760022e-03
1.178406e+00 7.500000e-01 4.019547e-03
1.176150e+00 7.500000e-01 4.296768e-03
1.173744e+00 7.500000e-01 4.593140e-03
1.171179e+00 7.500000e-01 4.910139e-03
1.168445e+00 7.500000e-01 5.248756e-03
1.165531e+00 7.500000e-01 5.609735e-03
1.162426e+00 7.500000e-01 5.993851e-03
1.159119e+00 7.500000e-01 6.402219e-03
1.155597e+00 7.500000e-01 6.835979e-03
1.151848e+00 7.500000e-01 7.296151e-03
1.147859e+00 7.500000e-01 7.783549e-03
1.143616e+00 7.500000e-01 8.298819e-03
1.139106e+00 7.500000e-01 8.842567e-03
1.134316e+00 7.500000e-01 9.415308e-03
1.129230e+00 7.500000e-01 1.001735e-02
1.123835e+00 7.500000e-01 1.064891e-02
1.118117e+00 7.500000e-01 1.130997e-02
1.112061e+00 7.500000e-01 1.200032e-02
1.105655e+00 7.500000e-01 1.271976e-02
1.098884e+00 7.500000e-01 1.346785e-02
1.091736e+00 7.500000e-01 1.424407e-02
1.084199e+00 7.500000e-01 1.504790e-02
1.076264e+00 7.500000e-01 1.587867e-02
1.067919e+00 7.500000e-01 1.673570e-02
1.059159e+00 7.500000e-01 1.761827e-02
1.049976e+00 7.500000e-01 1.852565e-02
1.040366e+00 7.500000e-01 1.945714e-02
1.030329e+00 7.500000e-01 2.041185e-02
1.019865e+00 7.500000e-01 2.138867e-02
1.008977e+00 7.500000e-01 2.238607e-02
9.976732e-01 7.500000e-01 2.340210e-02
9.859624e-01 7.500000e-01 2.443415e-02
9.738580e-01 7.500000e-01 2.547870e-02
9.613767e-01 7.500000e-01 2.653118e-02
9.485387e-01 7.500000e-01 2.758591e-02
9.353675e-01 7.500000e-01 2.863599e-02
9.218900e-01 7.500000e-01 2.967334e-02
9.081364e-01 7.500000e-01 3.068868e-02
8.941399e-01 7.500000e-01 3.167197e-02
8.799365e-01 7.500000e-01 3.261268e-02
8.655644e-01 7.500000e-01 3.350006e-02
8.510641e-01 7.500000e-01 3.432361e-02
8.364774e-01 7.500000e-01 3.507381e-02
8.218472e-01 7.500000e-01 3.574249e-02
8.072170e-01 7.500000e-01 3.632307e-02
7.926303e-01 7.500000e-01 3.681085e-02
7.781300e-01 7.500000e-01 3.720323e-02
7.637580e-01 7.500000e-01 3.750000e-02
7.495545e-01 7.500000e-01 3.770320e-02
7.355580e-01 7.500000e-01 3.781605e-02
7.218045e-01 7.500000e-01 3.784351e-02
7.083270e-01 7.500000e-01 3.779192e-02
6.951557e-01 7.500000e-01 3.766819e-02
6.823177e-01 7.500000e-01 3.747951e-02
6.698364e-01 7.500000e-01 3.723314e-02
6.577321e-01 7.500000e-01 3.693620e-02
6.460212e-01 7.500000e-01 3.659526e-02
6.347170e-01 7.500000e-01 3.621629e-02
6.238295e-01 7.500000e-01 3.580456e-02
6.133652e-01 7.500000e-01 3.536490e-02
6.033280e-01 7.500000e-01 3.490133e-02
5.937187e-01 7.500000e-01 3.441753e-02
5.845357e-01 7.500000e-01 3.391649e-02
5.757751e-01 7.500000e-01 3.340105e-02
5.674308e-01 7.500000e-01 3.287366e-02
5.594951e-01 7.500000e-01 3.233663e-02
5.519586e-01 7.500000e-01 3.179224e-02
5.448107e-01 7.500000e-01 3.124236e-02
5.380397e-01 7.500000e-01 3.068901e-02
5.316329e-01 7.500000e-01 3.013420e-02
5.255773e-01 7.500000e-01 2.957973e-02
5.198590e-01 7.500000e-01 2.902748e-02
5.144642e-01 7.500000e-01 2.847920e-02
5.093785e-01 7.500000e-01 2.793645e-02
5.045880e-01 7.500000e-01 2.740078e-02
5.000784e-01 7.500000e-01 2.687368e-02
4.958359e-01 7.500000e-01 2.635653e-02
4.918467e-01 7.500000e-01 2.585057e-02
4.880976e-01 7.500000e-01 2.535666e-02
4.845757e-01 7.500000e-01 2.487543e-02
4.812683e-01 7.500000e-01 2.440756e-02
4.781634e-01 7.500000e-01 2.395426e-02
4.758419e-01 7.500000e-01 2.452209e-02
4.760577e-01 7.500000e-01 2.834695e-02
4.748917e-01 7.500000e-01 3.268749e-02
4.710136e-01 7.500000e-01 3.483255e-02
4.669959e-01 7.500000e-01 3.622050e-02
4.639108e-01 7.500000e-01 3.740764e-02
4.611714e-01 7.500000e-01 3.819569e-02
4.584467e-01 7.500000e-01 3.860894e-02
4.557957e-01 7.500000e-01 3.880672e-02
4.532651e-01 7.500000e-01 3.884330e-02
4.508259e-01 7.500000e-01 3.872013e-02
4.484566e-01 7.500000e-01 3.845920e-02
4.461560e-01 7.500000e-01 3.808552e-02
4.439205e-01 7.500000e-01 3.761598e-02
4.417459e-01 7.500000e-01 3.705976e-02
4.396338e-01 7.500000e-01 3.642023e-02
4.375834e-01 7.500000e-01 3.569483e-02
4.355894e-01 7.500000e-01 3.488919e-02
4.336820e-01 7.500000e-01 3.400971e-02
4.318990e-01 7.500000e-01 3.308332e-02
4.302383e-01 7.500000e-01 3.212957e-02
4.286778e-01 7.500000e-01 3.113940e-02
4.272047e-01 7.500000e-01 3.010880e-02
4.258181e-01 7.500000e-01 2.904334e-02
4.245215e-01 7.500000e-01 2.794675e-02
4.233171e-01 7.500000e-01 2.682726e-02
4.222079e-01 7.500000e-01 2.569637e-02
4.211958e-01 7.500000e-01 2.456224e-02
4.202778e-01 7.500000e-01 2.343008e-02
4.194476e-01 7.500000e-01 2.230315e-02
4.186997e-01 7.500000e-01 2.118516e-02
4.180279e-01 7.500000e-01 2.007950e-02
4.174266e-01 7.500000e-01 1.898714e-02
4.168908e-01 7.500000e-01 1.790993e-02
4.164151e-01 7.500000e-01 1.685020e-02
4.159953e-01 7.500000e-01 1.580861e-02
4.156269e-01 7.500000e-01 1.478706e-02
4.153058e-01 7.500000e-01 1.378735e-02
4.150287e-01 7.500000e-01 1.280982e-02
4.147911e-01 7.500000e-01 1.185593e-02
4.145889e-01 7.500000e-01 1.092457e-02
4.144196e-01 7.500000e-01 1.001467e-02
4.142807e-01 7.500000e-01 9.128386e-03
4.141692e-01 7.500000e-01 8.269086e-03
4.140830e-01 7.500000e-01 7.439474e-03
4.140204e-01 7.500000e-01 6.628729e-03
4.139767e-01 7.500000e-01 5.825945e-03
4.139511e-01 7.500000e-01 5.046637e-03
4.139459e-01 7.500000e-01 4.315916e-03
4.139538e-01 7.500000e-01 3.613607e-03
4.139736e-01 7.500000e-01 2.863661e-03
4.140160e-01 7.500000e-01 2.099039e-03
4.140629e-01 7.500000e-01 1.481924e-03
4.141068e-01 7.500000e-01 9.270969e-04
4.142006e-01 7.500000e-01 4.203308e-05
4.143264e-01 7.500000e-01 -9.125519e-04
4.144201e-01 7.500000e-01 -1.538168e-03
4.144562e-01 7.500000e-01 -1.757924e-03
4.144927e-01 7.500000e-01 -1.983085e-03
4.146017e-01 7.500000e-01 -2.615605e-03
4.147768e-01 7.500000e-01 -3.510719e-03
4.149508e-01 7.500000e-01 -4.296509e-03
4.150676e-01 7.500000e-01 -4.791656e-03
4.152038e-01 7.500000e-01 -5.340135e-03
4.153738e-01 7.500000e-01 -5.984611e-03
4.155452e-01 7.500000e-01 -6.589997e-03
4.157130e-01 7.500000e-01 -7.151087e-03
4.158944e-01 7.500000e-01 -7.731613e-03
4.160972e-01 7.500000e-01 -8.341852e-03
4.160972e-01 7.500000e-01 -8.341852e-03
4.163140e-01 7.500000e-01 -8.963336e-03
4.165413e-01 7.500000e-01 -9.586120e-03
4.167841e-01 7.500000e-01 -1.021666e-02
4.170453e-01 7.500000e-01 -1.086110e-02
4.173256e-01 7.500000e-01 -1.151732e-02
4.176258e-01 7.500000e-01 -1.218452e-02
4.179467e-01 7.500000e-01 -1.286341e-02
4.182898e-01 7.500000e-01 -1.355704e-02
4.186575e-01 7.500000e-01 -1.426775e-02
4.190524e-01 7.500000e-01 -1.499582e-02
4.194770e-01 7.500000e-01 -1.574215e-02
4.199341e-01 7.500000e-01 -1.650691e-02
4.204264e-01 7.500000e-01 -1.729063e-02
4.209568e-01 7.500000e-01 -1.809494e-02
4.215288e-01 7.500000e-01 -1.892031e-02
4.221462e-01 7.500000e-01 -1.976730e-02
4.228141e-01 7.500000e-01 -2.063619e-02
4.235381e-01 7.500000e-01 -2.152471e-02
4.243246e-01 7.500000e-01 -2.243048e-02
4.251801e-01 7.500000e-01 -2.335176e-02
4.261093e-01 7.500000e-01 -2.428436e-02
4.271137e-01 7.500000e-01 -2.522176e-02
4.281961e-01 7.500000e-01 -2.615685e-02
4.293594e-01 7.500000e-01 -2.708564e-02
4.306028e-01 7.500000e-01 -2.800528e-02
4.319269e-01 7.500000e-01 -2.890858e-02
4.333410e-01 7.500000e-01 -2.979656e-02
4.348628e-01 7.500000e-01 -3.067402e-02
4.364965e-01 7.500000e-01 -3.152437e-02
4.382172e-01 7.500000e-01 -3.232849e-02
4.400070e-01 7.500000e-01 -3.308198e-02
4.418705e-01 7.500000e-01 -3.378281e-02
4.438048e-01 7.500000e-01 -3.443086e-02
4.457972e-01 7.500000e-01 -3.502584e-02
4.478382e-01 7.500000e-01 -3.556258e-02
4.499200e-01 7.500000e-01 -3.603718e-02
4.520340e-01 7.500000e-01 -3.645328e-02
4.541748e-01 7.500000e-01 -3.681336e-02
4.563373e-01 7.500000e-01 -3.712149e-02
4.585218e-01 7.500000e-01 -3.738217e-02
4.607365e-01 7.500000e-01 -3.760281e-02
4.629957e-01 7.500000e-01 -3.778712e-02
4.653188e-01 7.500000e-01 -3.794218e-02
4.677361e-01 7.500000e-01 -3.808201e-02
4.702886e-01 7.500000e-01 -3.822196e-02
4.730190e-01 7.500000e-01 -3.837516e-02
4.759707e-01 7.500000e-01 -3.855374e-02
4.791867e-01 7.500000e-01 -3.875469e-02
4.827015e-01 7.500000e-01 -3.892428e-02
4.865985e-01 7.500000e-01 -3.895791e-02
4.911842e-01 7.500000e-01 -3.884599e-02
4.968209e-01 7.500000e-01 -3.865045e-02
5.025839e-01 7.500000e-01 -3.737055e-02
5.065034e-01 7.500000e-01 -3.240713e-02
5.096190e-01 7.500000e-01 -2.852825e-02
5.144642e-01 7.500000e-01 -2.847920e-02
5.198590e-01 7.500000e-01 -2.902748e-02
5.255773e-01 7.500000e-01 -2.957973e-02
5.316329e-01 7.500000e-01 -3.013420e-02
5.380397e-01 7.500000e-01 -3.068901e-02
5.448107e-01 7.500000e-01 -3.124236e-02
5.519586e-01 7.500000e-01 -3.179224e-02
5.594951e-01 7.500000e-01 -3.233663e-02
5.674308e-01 7.500000e-01 -3.287366e-02
5.757751e-01 7.500000e-01 -3.340105e-02
5.845357e-01 7.500000e-01 -3.391649e-02
5.937187e-01 7.500000e-01 -3.441753e-02
6.033280e-01 7.500000e-01 -3.490133e-02
6.133652e-01 7.500000e-01 -3.536490e-02
6.238295e-01 7.500000e-01 -3.580456e-02
6.347170e-01 7.500000e-01 -3.621629e-02
6.460212e-01 7.500000e-01 -3.659526e-02
6.577321e-01 7.500000e-01 -3.693620e-02
6.698364e-01 7.500000e-01 -3.723314e-02
6.823177e-01 7.500000e-01 -3.747951e-02
6.951557e-01 7.500000e-01 -3.766819e-02
7.083270e-01 7.500000e-01 -3.779192e-02
7.218045e-01 7.500000e-01 -3.784351e-02
7.355580e-01 7.500000e-01 -3.781605e-02
7.495545e-01 7.500000e-01 -3.770320e-02
7.637580e-01 7.500000e-01 -3.750000e-02
7.781300e-01 7.500000e-01 -3.720323e-02
7.926303e-01 7.500000e-01 -3.681085e-02
8.072170e-01 7.500000e-01 -3.632307e-02
8.218472e-01 7.500000e-01 -3.574249e-02
8.364774e-01 7.500000e-01 -3.507381e-02
8.510641e-01 7.500000e-01 -3.432361e-02
8.655644e-01 7.500000e-01 -3.350006e-02
8.799365e-01 7.500000e-01 -3.261268e-02
8.941399e-01 7.500000e-01 -3.167197e-02
9.081364e-01 7.500000e-01 -3.068868e-02
9.218900e-01 7.500000e-01 -2.967334e-02
9.353675e-01 7.500000e-01 -2.863599e-02
9.485387e-01 7.500000e-01 -2.758591e-02
9.613767e-01 7.500000e-01 -2.653118e-02
9.738580e-01 7.500000e-01 -2.547870e-02
9.859624e-01 7.500000e-01 -2.443415e-02
9.976732e-01 7.500000e-01 -2.340210e-02
1.008977e+00 7.500000e-01 -2.238607e-02
1.019865e+00 7.500000e-01 -2.138867e-02
1.030329e+00 7.500000e-01 -2.041185e-02
1.040366e+00 7.500000e-01 -1.945714e-02
1.049976e+00 7.500000e-01 -1.852565e-02
1.059159e+00 7.500000e-01 -1.761827e-02
1.067919e+00 7.500000e-01 -1.673570e-02
1.076264e+00 7.500000e-01 -1.587867e-02
1.084199e+00 7.500000e-01 -1.504790e-02
1.091736e+00 7.500000e-01 -1.424407e-02
1.098884e+00 7.500000e-01 -1.346785e-02
1.105655e+00 7.500000e-01 -1.271976e-02
1.112061e+00 7.500000e-01 -1.200032e-02
1.118117e+00 7.500000e-01 -1.130997e-02
1.123835e+00 7.500000e-01 -1.064891e-02
1.129230e+00 7.500000e-01 -1.001735e-02
1.134316e+00 7.500000e-01 -9.415308e-03
1.139106e+00 7.500000e-01 -8.842567e-03
1.143616e+00 7.500000e-01 -8.298819e-03
1.147859e+00 7.500000e-01 -7.783549e-03
1.151848e+00 7.500000e-01 -7.296151e-03
1.155597e+00 7.500000e-01 -6.835979e-03
1.159119e+00 7.500000e-01 -6.402219e-03
1.162426e+00 7.500000e-01 -5.993851e-03
1.165531e+00 7.500000e-01 -5.609735e-03
1.168445e+00 7.500000e-01 -5.248756e-03
1.171179e+00 7.500000e-01 -4.910139e-03
1.173744e+00 7.500000e-01 -4.593140e-03
1.176150e+00 7.500000e-01 -4.296768e-03
1.178406e+00 7.500000e-01 -4.019547e-03
1.180523e+00 7.500000e-01 -3.760022e-03
1.182507e+00 7.500000e-01 -3.516885e-03
1.184367e+00 7.500000e-01 -3.288958e-03
1.186112e+00 7.500000e-01 -3.075174e-03
1.187748e+00 7.500000e-01 -2.874565e-03
1.189283e+00 7.500000e-01 -2.686243e-03
1.190721e+00 7.500000e-01 -2.509397e-03
1.192071e+00 7.500000e-01 -2.343279e-03
1.193336e+00 7.500000e-01 -2.187200e-03
1.194523e+00 7.500000e-01 -2.040523e-03
1.195637e+00 7.500000e-01 -1.902658e-03
1.196682e+00 7.500000e-01 -1.773057e-03
1.197662e+00 7.500000e-01 -1.651209e-03
1.198582e+00 7.500000e-01 -1.536642e-03
1.199445e+00 7.500000e-01 -1.428913e-03
1.200254e+00 7.500000e-01 -1.327611e-03
1.201014e+00 7.500000e-01 -1.232351e-03
1.201728e+00 7.500000e-01 -1.142774e-03
1.202397e+00 7.500000e-01 -1.058547e-03
1.203025e+00 7.500000e-01 -9.793554e-04
1.203614e+00 7.500000e-01 -9.049080e-04
1.204168e+00 7.500000e-01 -8.349322e-04
1.204686e+00 7.500000e-01 -7.691731e-04
1.205173e+00 7.500000e-01 -7.073932e-04
1.205629e+00 7.500000e-01 -6.493704e-04
1.206057e+00 7.500000e-01 -5.948978e-04
1.206458e+00 7.500000e-01 -5.437823e-04
1.206834e+00 7.500000e-01 -4.958449e-04
1.207185e+00 7.500000e-01 -4.509226e-04
1.207514e+00 7.500000e-01 -4.088629e-04
1.207821e+00 7.500000e-01 -3.695224e-04
1.208108e+00 7.500000e-01 -3.327670e-04
1.208375e+00 7.500000e-01 -2.984709e-04
1.208624e+00 7.500000e-01 -2.665169e-04
1.208856e+00 7.500000e-01 -2.367959e-04
1.209071e+00 7.500000e-01 -2.092066e-04
1.209270e+00 7.500000e-01 -1.836552e-04