#++++++++++++++++++++++++++++++++++++++++++++++++++++++++++++++++++++++++++++++++++++++++++++++++++++++++++++++++++++++++++++++++++
#
#   IPW-3 Cut/Slice DATA SUBMITTAL FORM for Test Case NACA0012_AE3933, May 18th 2026
#
#       NOMENCLATURE:
#                  X [m]:  X-coordinate of the surface (clean for reference)
#                  Y [m]:  Y-coordinate of the surface (clean for reference)
#                  Z [m]:  Z-coordinate of the surface (clean for reference)
#                 Cp [-]:  Pressure coefficient
#            HTC [W/m2K]:  Convective Heat Transfer Coefficient (on the rough surface)
#               Beta [-]:  Collection efficiency
#                 Ts [K]:  Surface temperature
#                 FF [-]:  Freezing fraction
#                  k [m]:  Surface roughness height if variable (OPTIONAL)
#         RhoIce [kg/m3]:  Ice density (OPTIONAL)
#     HTC_CLEAN [W/m2K]:  Convective Heat Transfer Coefficient on the surface without roughness (OPTIONAL)
#
#                XXmm:  Roughness height used for the case, in mm.
#                       In the zone name, use the format KS_XXmm.
#                       For example, if k_s = 1.5 mm, use KS_1p5mm.
#                       For Variable roughness, use KS_VAR
#
#    FLOW CONDITIONS:
#                                  AOA: 4.0 deg
#                           Mach Number: 0.3127 [-]
#       Mean aerodynamic chord (M.A.C.): 0.5334 [m]
#                       Reynolds Number: 3.8947 million (based on MAC)
#                       Freestream Temp: 270.95 [K]
#                        Reference area: 0.97548 [m2]
#               Moment Reference Center: 0.13335, 0, 0 [m] (X, Y, Z)
#
#    ICING CONDITIONS:
#                           Icing Time: 420 [s]
#                                  LWC: 0.55 [g/m3]
#                                  MVD: 20 [μm]
#
#              NOTES: 1. Please use at least 5 decimal places in the numerical values
#                     2. If data are NOT provided, please fill data fields with a numerical value of "-999"
#
#++++++++++++++++++++++++++++++++++++++++++++++++++++++++++++++++++++++++++++++++++++++++++++++++++++++++++++++++++++++++++++++++++

TITLE = "002_NACA0012_AE3933_01"
FILETYPE = FULL
VARIABLES = "X" "Y" "Z" "Cp" "HTC" "Beta" "Ts" "FF" "k" "RhoIce" "HTC_CLEAN"
ZONE T="SLICE_Y_0p9144_BINS01_KS_1mm_CUTDATA"
 I=1, J=1, K=1, DATAPACKING=POINT
-999.00000 -999.00000 -999.00000 -999.00000 -999.00000 -999.00000 -999.00000 -999.00000 -999.00000 -999.00000 -999.00000
ZONE T="SLICE_Y_0p9144_BINS03_KS_1mm_CUTDATA"
 I=519, J=1, K=1, DATAPACKING=POINT
0.53119 0.91440 -0.02696 0.24058 0.00000 0.00000 273.15000 -1.00000 0.00851 917.00000 0.00000
0.53183 0.91440 -0.02710 0.23948 0.00000 0.00000 273.15000 -1.00000 0.00568 917.00000 0.00000
0.53222 0.91440 -0.02718 0.25212 0.00000 0.00000 273.15000 -1.00000 0.05097 917.00000 0.00000
0.53247 0.91440 -0.02724 0.20979 0.00000 0.00000 273.15000 -1.00000 0.00013 917.00000 0.00000
0.53247 0.91440 -0.02733 0.22124 0.00000 0.00000 273.15000 -1.00000 0.01030 917.00000 0.00000
0.53246 0.91440 -0.02741 0.22912 0.00000 0.00000 273.15000 -1.00000 0.01037 917.00000 0.00000
0.53245 0.91440 -0.02750 0.22668 0.00000 0.00000 273.15000 -1.00000 0.00368 917.00000 0.00000
0.53245 0.91440 -0.02759 0.22861 0.00000 0.00000 273.15000 -1.00000 0.00794 917.00000 0.00000
0.53244 0.91440 -0.02768 0.23083 0.00000 0.00000 273.15000 -1.00000 0.00927 917.00000 0.00000
0.53243 0.91440 -0.02777 0.23361 0.00000 0.00000 273.15000 -1.00000 0.00807 917.00000 0.00000
0.53243 0.91440 -0.02786 0.23596 0.00000 0.00000 273.15000 -1.00000 0.00449 917.00000 0.00000
0.53242 0.91440 -0.02795 0.23715 0.00000 0.00000 273.15000 -1.00000 0.00195 917.00000 0.00000
0.53242 0.91440 -0.02804 0.23698 0.00000 0.00000 273.15000 -1.00000 0.00296 917.00000 0.00000
0.53241 0.91440 -0.02813 0.23522 0.00000 0.00000 273.15000 -1.00000 0.00629 917.00000 0.00000
0.53240 0.91440 -0.02822 0.23271 0.00000 0.00000 273.15000 -1.00000 0.01043 917.00000 0.00000
0.53240 0.91440 -0.02831 0.22918 0.00000 0.00000 273.15000 -1.00000 0.00706 917.00000 0.00000
0.53239 0.91440 -0.02840 0.23131 0.00000 0.00000 273.15000 -1.00000 0.03026 917.00000 0.00000
0.53238 0.91440 -0.02849 0.21803 0.00000 0.00000 273.15000 -1.00000 0.02988 917.00000 0.00000
0.53238 0.91440 -0.02858 0.20022 0.00000 0.00000 273.15000 -1.00000 0.00043 917.00000 0.00000
0.53212 0.91440 -0.02859 0.26398 0.00000 0.00000 273.15000 -1.00000 0.07790 917.00000 0.00000
0.53172 0.91440 -0.02862 0.24539 0.00000 0.00000 273.15000 -1.00000 0.01227 917.00000 0.00000
0.53107 0.91440 -0.02867 0.24650 0.00000 0.00000 273.15000 -1.00000 0.02095 917.00000 0.00000
0.53003 0.91440 -0.02874 0.23875 0.00000 0.00000 273.15000 -1.00000 0.01971 917.00000 0.00000
0.52837 0.91440 -0.02885 0.23139 0.00000 0.00000 273.15000 -1.00000 0.02221 917.00000 0.00000
0.52580 0.91440 -0.02903 0.22045 0.00000 0.00000 273.15000 -1.00000 0.02404 917.00000 0.00000
0.52324 0.91440 -0.02920 0.21065 0.00000 0.00000 273.15000 -1.00000 0.02619 917.00000 0.00000
0.52067 0.91440 -0.02937 0.20147 0.00000 0.00000 273.15000 -1.00000 0.02794 917.00000 0.00000
0.51810 0.91440 -0.02954 0.19317 0.00000 0.00000 273.15000 -1.00000 0.02957 917.00000 0.00000
0.51553 0.91440 -0.02971 0.18549 0.00000 0.00000 273.15000 -1.00000 0.03104 917.00000 0.00000
0.51296 0.91440 -0.02987 0.17834 0.00000 0.00000 273.15000 -1.00000 0.03241 917.00000 0.00000
0.51039 0.91440 -0.03003 0.17168 0.00000 0.00000 273.15000 -1.00000 0.03367 917.00000 0.00000
0.50782 0.91440 -0.03019 0.16545 0.00000 0.00000 273.15000 -1.00000 0.03485 917.00000 0.00000
0.50525 0.91440 -0.03035 0.15958 0.00000 0.00000 273.15000 -1.00000 0.03594 917.00000 0.00000
0.50268 0.91440 -0.03051 0.15402 0.00000 0.00000 273.15000 -1.00000 0.03697 917.00000 0.00000
0.50011 0.91440 -0.03067 0.14876 0.00000 0.00000 273.15000 -1.00000 0.03795 917.00000 0.00000
0.49754 0.91440 -0.03082 0.14378 0.00000 0.00000 273.15000 -1.00000 0.03886 917.00000 0.00000
0.49497 0.91440 -0.03097 0.13904 0.00000 0.00000 273.15000 -1.00000 0.03973 917.00000 0.00000
0.49240 0.91440 -0.03112 0.13453 0.00000 0.00000 273.15000 -1.00000 0.04055 917.00000 0.00000
0.48983 0.91440 -0.03127 0.13021 0.00000 0.00000 273.15000 -1.00000 0.04133 917.00000 0.00000
0.48726 0.91440 -0.03141 0.12606 0.00000 0.00000 273.15000 -1.00000 0.04208 917.00000 0.00000
0.48469 0.91440 -0.03156 0.12209 0.00000 0.00000 273.15000 -1.00000 0.04279 917.00000 0.00000
0.48212 0.91440 -0.03170 0.11829 0.00000 0.00000 273.15000 -1.00000 0.04347 917.00000 0.00000
0.47955 0.91440 -0.03184 0.11463 0.00000 0.00000 273.15000 -1.00000 0.04412 917.00000 0.00000
0.47698 0.91440 -0.03198 0.11110 0.00000 0.00000 273.15000 -1.00000 0.04474 917.00000 0.00000
0.47441 0.91440 -0.03212 0.10770 0.00000 0.00000 273.15000 -1.00000 0.04534 917.00000 0.00000
0.47184 0.91440 -0.03225 0.10441 0.00000 0.00000 273.15000 -1.00000 0.04592 917.00000 0.00000
0.46927 0.91440 -0.03239 0.10122 0.00000 0.00000 273.15000 -1.00000 0.04648 917.00000 0.00000
0.46670 0.91440 -0.03252 0.09815 0.00000 0.00000 273.15000 -1.00000 0.04702 917.00000 0.00000
0.46413 0.91440 -0.03265 0.09518 0.00000 0.00000 273.15000 -1.00000 0.04754 917.00000 0.00000
0.46156 0.91440 -0.03278 0.09230 0.00000 0.00000 273.15000 -1.00000 0.04804 917.00000 0.00000
0.45899 0.91440 -0.03290 0.08948 0.00000 0.00000 273.15000 -1.00000 0.04852 917.00000 0.00000
0.45641 0.91440 -0.03303 0.08674 0.00000 0.00000 273.15000 -1.00000 0.04900 917.00000 0.00000
0.45384 0.91440 -0.03315 0.08410 0.00000 0.00000 273.15000 -1.00000 0.04946 917.00000 0.00000
0.45127 0.91440 -0.03327 0.08154 0.00000 0.00000 273.15000 -1.00000 0.04990 917.00000 0.00000
0.44870 0.91440 -0.03339 0.07899 0.00000 0.00000 273.15000 -1.00000 0.05033 917.00000 0.00000
0.44613 0.91440 -0.03351 0.07654 0.00000 0.00000 273.15000 -1.00000 0.05076 917.00000 0.00000
0.44356 0.91440 -0.03363 0.07417 0.00000 0.00000 273.15000 -1.00000 0.05117 917.00000 0.00000
0.44099 0.91440 -0.03374 0.07182 0.00000 0.00000 273.15000 -1.00000 0.05157 917.00000 0.00000
0.43841 0.91440 -0.03386 0.06955 0.00000 0.00000 273.15000 -1.00000 0.05196 917.00000 0.00000
0.43584 0.91440 -0.03397 0.06731 0.00000 0.00000 273.15000 -1.00000 0.05235 917.00000 0.00000
0.43327 0.91440 -0.03408 0.06512 0.00000 0.00000 273.15000 -1.00000 0.05273 917.00000 0.00000
0.43070 0.91440 -0.03419 0.06300 0.00000 0.00000 273.15000 -1.00000 0.05310 917.00000 0.00000
0.42813 0.91440 -0.03430 0.06089 0.00000 0.00000 273.15000 -1.00000 0.05346 917.00000 0.00000
0.42555 0.91440 -0.03440 0.05885 0.00000 0.00000 273.15000 -1.00000 0.05382 917.00000 0.00000
0.42298 0.91440 -0.03450 0.05683 0.00000 0.00000 273.15000 -1.00000 0.05416 917.00000 0.00000
0.42041 0.91440 -0.03461 0.05485 0.00000 0.00000 273.15000 -1.00000 0.05451 917.00000 0.00000
0.41784 0.91440 -0.03471 0.05292 0.00000 0.00000 273.15000 -1.00000 0.05485 917.00000 0.00000
0.41527 0.91440 -0.03481 0.05100 0.00000 0.00000 273.15000 -1.00000 0.05518 917.00000 0.00000
0.41269 0.91440 -0.03490 0.04913 0.00000 0.00000 273.15000 -1.00000 0.05552 917.00000 0.00000
0.41012 0.91440 -0.03500 0.04729 0.00000 0.00000 273.15000 -1.00000 0.05584 917.00000 0.00000
0.40755 0.91440 -0.03509 0.04549 0.00000 0.00000 273.15000 -1.00000 0.05616 917.00000 0.00000
0.40498 0.91440 -0.03519 0.04368 0.00000 0.00000 273.15000 -1.00000 0.05648 917.00000 0.00000
0.40240 0.91440 -0.03528 0.04192 0.00000 0.00000 273.15000 -1.00000 0.05681 917.00000 0.00000
0.39983 0.91440 -0.03537 0.04021 0.00000 0.00000 273.15000 -1.00000 0.05711 917.00000 0.00000
0.39726 0.91440 -0.03545 0.03848 371.75175 0.00000 270.45883 -1.00000 0.05743 917.00000 371.75175
0.39469 0.91440 -0.03554 0.03683 372.22505 0.00000 270.45801 -1.00000 0.05773 917.00000 372.22505
0.39211 0.91440 -0.03562 0.03514 373.17249 0.00000 270.45705 -1.00000 0.05803 917.00000 373.17249
0.38954 0.91440 -0.03571 0.03350 374.10342 0.00000 270.45612 -1.00000 0.05835 917.00000 374.10342
0.38697 0.91440 -0.03579 0.03191 375.03851 0.00000 270.45520 -1.00000 0.05864 917.00000 375.03851
0.38439 0.91440 -0.03587 0.03029 375.98589 0.00000 270.45428 -1.00000 0.05894 917.00000 375.98589
0.38182 0.91440 -0.03594 0.02873 376.91364 0.00000 270.45339 -1.00000 0.05925 917.00000 376.91364
0.37925 0.91440 -0.03602 0.02717 377.86386 0.00000 270.45249 -1.00000 0.05954 917.00000 377.86386
0.37667 0.91440 -0.03609 0.02560 378.80333 0.00000 270.45161 -1.00000 0.05985 917.00000 378.80333
0.37410 0.91440 -0.03617 0.02411 379.74563 0.00000 270.45074 -1.00000 0.06015 917.00000 379.74563
0.37153 0.91440 -0.03624 0.02259 380.68642 0.00000 270.44989 -1.00000 0.06043 917.00000 380.68642
0.36895 0.91440 -0.03631 0.02108 381.64471 0.00000 270.44902 -1.00000 0.06074 917.00000 381.64471
0.36638 0.91440 -0.03637 0.01963 382.59521 0.00000 270.44819 -1.00000 0.06104 917.00000 382.59521
0.36381 0.91440 -0.03644 0.01817 383.54240 0.00000 270.44736 -1.00000 0.06132 917.00000 383.54240
0.36123 0.91440 -0.03650 0.01669 384.51572 0.00000 270.44651 -1.00000 0.06162 917.00000 384.51572
0.35866 0.91440 -0.03657 0.01528 385.46600 0.00000 270.44571 -1.00000 0.06193 917.00000 385.46600
0.35609 0.91440 -0.03663 0.01389 386.42889 0.00000 270.44490 -1.00000 0.06220 917.00000 386.42889
0.35351 0.91440 -0.03668 0.01245 387.40486 0.00000 270.44409 -1.00000 0.06249 917.00000 387.40486
0.35094 0.91440 -0.03674 0.01104 388.38409 0.00000 270.44328 -1.00000 0.06281 917.00000 388.38409
0.34837 0.91440 -0.03680 0.00967 389.36416 0.00000 270.44249 -1.00000 0.06311 917.00000 389.36416
0.34579 0.91440 -0.03685 0.00830 390.34023 0.00000 270.44172 -1.00000 0.06340 917.00000 390.34023
0.34322 0.91440 -0.03690 0.00694 391.33643 0.00000 270.44094 -1.00000 0.06370 917.00000 391.33643
0.34064 0.91440 -0.03695 0.00560 392.32394 0.00000 270.44017 -1.00000 0.06400 917.00000 392.32394
0.33807 0.91440 -0.03700 0.00427 393.32832 0.00000 270.43941 -1.00000 0.06430 917.00000 393.32832
0.33550 0.91440 -0.03704 0.00294 394.33712 0.00000 270.43865 -1.00000 0.06460 917.00000 394.33712
0.33292 0.91440 -0.03709 0.00163 395.34092 0.00000 270.43790 -1.00000 0.06491 917.00000 395.34092
0.33035 0.91440 -0.03713 0.00033 396.36186 0.00000 270.43716 -1.00000 0.06522 917.00000 396.36186
0.32778 0.91440 -0.03717 -0.00096 397.37698 0.00000 270.43643 -1.00000 0.06552 917.00000 397.37698
0.32520 0.91440 -0.03721 -0.00223 398.41707 0.00000 270.43569 -1.00000 0.06584 917.00000 398.41707
0.32263 0.91440 -0.03724 -0.00350 399.44458 0.00000 270.43497 -1.00000 0.06615 917.00000 399.44458
0.32005 0.91440 -0.03728 -0.00475 400.49274 0.00000 270.43425 -1.00000 0.06646 917.00000 400.49274
0.31748 0.91440 -0.03731 -0.00600 401.54704 0.00000 270.43354 -1.00000 0.06678 917.00000 401.54704
0.31490 0.91440 -0.03734 -0.00723 402.59684 0.00000 270.43284 -1.00000 0.06709 917.00000 402.59684
0.31233 0.91440 -0.03737 -0.00845 403.66993 0.00000 270.43213 -1.00000 0.06741 917.00000 403.66993
0.30976 0.91440 -0.03739 -0.00967 404.73151 0.00000 270.43144 -1.00000 0.06773 917.00000 404.73151
0.30718 0.91440 -0.03742 -0.01087 405.82361 0.00000 270.43075 -1.00000 0.06805 917.00000 405.82361
0.30461 0.91440 -0.03744 -0.01206 406.90454 0.00000 270.43007 -1.00000 0.06838 917.00000 406.90454
0.30203 0.91440 -0.03746 -0.01324 408.00721 0.00000 270.42940 -1.00000 0.06871 917.00000 408.00721
0.29946 0.91440 -0.03747 -0.01441 409.11882 0.00000 270.42872 -1.00000 0.06904 917.00000 409.11882
0.29689 0.91440 -0.03749 -0.01557 410.22602 0.00000 270.42806 -1.00000 0.06938 917.00000 410.22602
0.29431 0.91440 -0.03750 -0.01671 411.36126 0.00000 270.42740 -1.00000 0.06972 917.00000 411.36126
0.29174 0.91440 -0.03751 -0.01785 412.47976 0.00000 270.42676 -1.00000 0.07006 917.00000 412.47976
0.28916 0.91440 -0.03752 -0.01897 413.63463 0.00000 270.42611 -1.00000 0.07040 917.00000 413.63463
0.28659 0.91440 -0.03753 -0.02009 414.77950 0.00000 270.42548 -1.00000 0.07075 917.00000 414.77950
0.28401 0.91440 -0.03753 -0.02118 415.94650 0.00000 270.42485 -1.00000 0.07111 917.00000 415.94650
0.28144 0.91440 -0.03753 -0.02228 417.12608 0.00000 270.42422 -1.00000 0.07146 917.00000 417.12608
0.27887 0.91440 -0.03753 -0.02335 418.30056 0.00000 270.42361 -1.00000 0.07182 917.00000 418.30056
0.27629 0.91440 -0.03752 -0.02442 419.50917 0.00000 270.42299 -1.00000 0.07219 917.00000 419.50917
0.27372 0.91440 -0.03752 -0.02547 420.70110 0.00000 270.42240 -1.00000 0.07256 917.00000 420.70110
0.27114 0.91440 -0.03751 -0.02651 421.92961 0.00000 270.42180 -1.00000 0.07293 917.00000 421.92961
0.26857 0.91440 -0.03750 -0.02754 423.14926 0.00000 270.42121 -1.00000 0.07331 917.00000 423.14926
0.26599 0.91440 -0.03748 -0.02854 424.39435 0.00000 270.42063 -1.00000 0.07369 917.00000 424.39435
0.26342 0.91440 -0.03746 -0.02954 425.65403 0.00000 270.42006 -1.00000 0.07408 917.00000 425.65403
0.26085 0.91440 -0.03744 -0.03052 426.90691 0.00000 270.41951 -1.00000 0.07447 917.00000 426.90691
0.25827 0.91440 -0.03742 -0.03149 428.19882 0.00000 270.41894 -1.00000 0.07486 917.00000 428.19882
0.25570 0.91440 -0.03740 -0.03243 429.47778 0.00000 270.41841 -1.00000 0.07526 917.00000 429.47778
0.25312 0.91440 -0.03737 -0.03337 430.78896 0.00000 270.41787 -1.00000 0.07566 917.00000 430.78896
0.25055 0.91440 -0.03734 -0.03428 432.09508 0.00000 270.41735 -1.00000 0.07607 917.00000 432.09508
0.24798 0.91440 -0.03730 -0.03519 433.43182 0.00000 270.41683 -1.00000 0.07648 917.00000 433.43182
0.24540 0.91440 -0.03727 -0.03606 434.78382 0.00000 270.41632 -1.00000 0.07690 917.00000 434.78382
0.24283 0.91440 -0.03723 -0.03693 436.13558 0.00000 270.41583 -1.00000 0.07732 917.00000 436.13558
0.24025 0.91440 -0.03718 -0.03777 437.52072 0.00000 270.41534 -1.00000 0.07775 917.00000 437.52072
0.23768 0.91440 -0.03714 -0.03860 438.90051 0.00000 270.41487 -1.00000 0.07819 917.00000 438.90051
0.23511 0.91440 -0.03709 -0.03941 440.31180 0.00000 270.41441 -1.00000 0.07863 917.00000 440.31180
0.23253 0.91440 -0.03703 -0.04018 441.72104 0.00000 270.41397 -1.00000 0.07908 917.00000 441.72104
0.22996 0.91440 -0.03698 -0.04093 443.16268 0.00000 270.41354 -1.00000 0.07953 917.00000 443.16268
0.22738 0.91440 -0.03692 -0.04167 444.62069 0.00000 270.41312 -1.00000 0.08000 917.00000 444.62069
0.22481 0.91440 -0.03686 -0.04238 446.07970 0.00000 270.41271 -1.00000 0.08047 917.00000 446.07970
0.22224 0.91440 -0.03679 -0.04306 447.57685 0.00000 270.41232 -1.00000 0.08094 917.00000 447.57685
0.21967 0.91440 -0.03672 -0.04371 449.06870 0.00000 270.41195 -1.00000 0.08143 917.00000 449.06870
0.21709 0.91440 -0.03665 -0.04433 450.59448 0.00000 270.41159 -1.00000 0.08192 917.00000 450.59448
0.21452 0.91440 -0.03657 -0.04493 452.13819 0.00000 270.41125 -1.00000 0.08241 917.00000 452.13819
0.21194 0.91440 -0.03649 -0.04550 453.68862 0.00000 270.41092 -1.00000 0.08292 917.00000 453.68862
0.20937 0.91440 -0.03641 -0.04604 455.27140 0.00000 270.41061 -1.00000 0.08343 917.00000 455.27140
0.20680 0.91440 -0.03632 -0.04655 456.85712 0.00000 270.41032 -1.00000 0.08396 917.00000 456.85712
0.20423 0.91440 -0.03622 -0.04700 458.48630 0.00000 270.41005 -1.00000 0.08448 917.00000 458.48630
0.20166 0.91440 -0.03613 -0.04746 460.11154 0.00000 270.40980 -1.00000 0.08502 917.00000 460.11154
0.19908 0.91440 -0.03603 -0.04784 461.77497 0.00000 270.40958 -1.00000 0.08557 917.00000 461.77497
0.19651 0.91440 -0.03592 -0.04819 463.45844 0.00000 270.40937 -1.00000 0.08611 917.00000 463.45844
0.19394 0.91440 -0.03582 -0.04853 465.15016 0.00000 270.40919 -1.00000 0.08668 917.00000 465.15016
0.19137 0.91440 -0.03570 -0.04876 466.86920 0.00000 270.40905 -1.00000 0.08724 917.00000 466.86920
0.18880 0.91440 -0.03559 -0.04901 468.60318 0.00000 270.40891 -1.00000 0.08781 917.00000 468.60318
0.18622 0.91440 -0.03546 -0.04916 470.38158 0.00000 270.40882 -1.00000 0.08839 917.00000 470.38158
0.18365 0.91440 -0.03534 -0.04929 472.15567 0.00000 270.40875 -1.00000 0.08896 917.00000 472.15567
0.18108 0.91440 -0.03521 -0.04937 473.97875 0.00000 270.40870 -1.00000 0.08956 917.00000 473.97875
0.17851 0.91440 -0.03507 -0.04937 475.81763 0.00000 270.40870 -1.00000 0.09015 917.00000 475.81763
0.17594 0.91440 -0.03493 -0.04933 477.66333 0.00000 270.40873 -1.00000 0.09075 917.00000 477.66333
0.17337 0.91440 -0.03479 -0.04920 479.55727 0.00000 270.40880 -1.00000 0.09136 917.00000 479.55727
0.17080 0.91440 -0.03464 -0.04906 481.45386 0.00000 270.40888 -1.00000 0.09197 917.00000 481.45386
0.16823 0.91440 -0.03448 -0.04885 483.41805 0.00000 270.40901 -1.00000 0.09262 917.00000 483.41805
0.16566 0.91440 -0.03432 -0.04854 485.36864 0.00000 270.40917 -1.00000 0.09324 917.00000 485.36864
0.16309 0.91440 -0.03416 -0.04824 487.39437 0.00000 270.40935 -1.00000 0.09390 917.00000 487.39437
0.16052 0.91440 -0.03399 -0.04784 489.44280 0.00000 270.40959 -1.00000 0.09459 917.00000 489.44280
0.15796 0.91440 -0.03381 -0.04733 491.48875 0.00000 270.40987 -1.00000 0.09525 917.00000 491.48875
0.15539 0.91440 -0.03363 -0.04682 493.62543 0.00000 270.41017 -1.00000 0.09594 917.00000 493.62543
0.15282 0.91440 -0.03344 -0.04620 495.73696 0.00000 270.41052 -1.00000 0.09666 917.00000 495.73696
0.15025 0.91440 -0.03325 -0.04545 497.92017 0.00000 270.41095 -1.00000 0.09737 917.00000 497.92017
0.14769 0.91440 -0.03305 -0.04465 500.11327 0.00000 270.41141 -1.00000 0.09807 917.00000 500.11327
0.14512 0.91440 -0.03285 -0.04380 502.38376 0.00000 270.41190 -1.00000 0.09881 917.00000 502.38376
0.14255 0.91440 -0.03263 -0.04282 504.67808 0.00000 270.41246 -1.00000 0.09957 917.00000 504.67808
0.13999 0.91440 -0.03242 -0.04169 506.97137 0.00000 270.41233 -1.00000 0.10030 917.00000 506.97137
0.13743 0.91440 -0.03219 -0.04049 509.35934 0.00000 270.31727 0.00000 0.10103 917.00000 509.35934
0.13486 0.91440 -0.03196 -0.03921 511.75806 0.00275 269.66686 0.00000 0.10177 917.00000 511.75806
0.13230 0.91440 -0.03172 -0.03784 514.23972 0.00593 269.11677 1.00000 0.10253 917.00000 514.23972
0.12973 0.91440 -0.03148 -0.03632 516.72621 0.00670 269.11111 1.00000 0.10331 917.00000 516.72621
0.12717 0.91440 -0.03123 -0.03464 519.27795 0.00555 269.09873 1.00000 0.10408 917.00000 519.27795
0.12461 0.91440 -0.03097 -0.03283 521.88484 0.00642 269.11788 1.00000 0.10483 917.00000 521.88484
0.12205 0.91440 -0.03070 -0.03091 524.51596 0.00916 269.16345 1.00000 0.10561 917.00000 524.51596
0.11949 0.91440 -0.03043 -0.02885 527.25728 0.01002 269.17941 1.00000 0.10640 917.00000 527.25728
0.11693 0.91440 -0.03015 -0.02664 530.00438 0.00811 269.15689 1.00000 0.10720 917.00000 530.00438
0.11438 0.91440 -0.02985 -0.02426 532.84623 0.00895 269.17353 1.00000 0.10800 917.00000 532.84623
0.11182 0.91440 -0.02956 -0.02169 535.70832 0.01258 269.23144 1.00000 0.10879 917.00000 535.70832
0.10924 0.91440 -0.02925 -0.01895 538.70238 0.01355 269.25755 1.00000 0.10957 917.00000 538.70238
0.10678 0.91440 -0.02894 -0.01618 541.63385 0.01453 269.27712 1.00000 0.11030 917.00000 541.63385
0.10445 0.91440 -0.02865 -0.01337 544.46218 0.01540 269.29446 1.00000 0.11098 917.00000 544.46218
0.10222 0.91440 -0.02836 -0.01047 547.18262 0.01621 269.31070 1.00000 0.11159 917.00000 547.18262
0.10011 0.91440 -0.02808 -0.00758 549.84248 0.01708 269.32780 1.00000 0.11214 917.00000 549.84248
0.09809 0.91440 -0.02780 -0.00471 552.46007 0.01803 269.34500 1.00000 0.11270 917.00000 552.46007
0.09617 0.91440 -0.02754 -0.00177 554.95812 0.01861 269.35717 1.00000 0.11322 917.00000 554.95812
0.09434 0.91440 -0.02728 0.00114 557.41360 0.01914 269.36883 1.00000 0.11366 917.00000 557.41360
0.09260 0.91440 -0.02702 0.00398 559.81721 0.02016 269.38640 1.00000 0.11409 917.00000 559.81721
0.09095 0.91440 -0.02678 0.00687 562.10860 0.02102 269.40278 1.00000 0.11447 917.00000 562.10860
0.08937 0.91440 -0.02654 0.00977 564.32696 0.02177 269.41653 1.00000 0.11463 917.00000 564.32696
0.08787 0.91440 -0.02631 0.01207 566.65783 0.02231 269.42724 1.00000 0.11505 917.00000 566.65783
0.08644 0.91440 -0.02609 0.01499 568.70259 0.02277 269.43762 1.00000 0.11545 917.00000 568.70259
0.08501 0.91440 -0.02586 0.01830 570.71830 0.02362 269.45209 1.00000 0.11379 917.00000 570.71830
0.08359 0.91440 -0.02563 0.02111 572.88825 0.02439 269.46652 1.00000 0.11100 917.00000 572.88825
0.08216 0.91440 -0.02540 0.02421 575.07092 0.02526 269.48199 1.00000 0.10858 917.00000 575.07092
0.08073 0.91440 -0.02516 0.02738 577.34932 0.02607 269.49634 1.00000 0.10608 917.00000 577.34932
0.07931 0.91440 -0.02492 0.03068 579.61257 0.02652 269.50681 1.00000 0.10367 917.00000 579.61257
0.07788 0.91440 -0.02467 0.03412 581.96174 0.02725 269.52017 1.00000 0.10129 917.00000 581.96174
0.07646 0.91440 -0.02442 0.03769 584.28057 0.02812 269.53640 1.00000 0.09893 917.00000 584.28057
0.07503 0.91440 -0.02417 0.04140 586.70683 0.02938 269.55515 1.00000 0.09661 917.00000 586.70683
0.07361 0.91440 -0.02391 0.04526 589.12643 0.03004 269.56802 1.00000 0.09433 917.00000 589.12643
0.07219 0.91440 -0.02365 0.04925 591.64143 0.03040 269.57808 1.00000 0.09208 917.00000 591.64143
0.07077 0.91440 -0.02339 0.05339 594.16342 0.03137 269.59289 1.00000 0.08987 917.00000 594.16342
0.06935 0.91440 -0.02312 0.05768 596.72733 0.03233 269.60909 1.00000 0.08770 917.00000 596.72733
0.06793 0.91440 -0.02284 0.06213 599.40856 0.03308 269.62406 1.00000 0.08557 917.00000 599.40856
0.06651 0.91440 -0.02256 0.06675 602.07958 0.03415 269.64201 1.00000 0.08344 917.00000 602.07958
0.06509 0.91440 -0.02228 0.07155 604.87122 0.03545 269.66249 1.00000 0.08130 917.00000 604.87122
0.06367 0.91440 -0.02199 0.07655 607.63337 0.03635 269.67974 1.00000 0.07919 917.00000 607.63337
0.06226 0.91440 -0.02169 0.08178 610.52547 0.03754 269.69881 1.00000 0.07711 917.00000 610.52547
0.06084 0.91440 -0.02139 0.08722 613.41543 0.03855 269.71695 1.00000 0.07505 917.00000 613.41543
0.05943 0.91440 -0.02109 0.09284 616.44767 0.03973 269.73745 1.00000 0.07303 917.00000 616.44767
0.05802 0.91440 -0.02078 0.09867 619.50464 0.04106 269.75770 1.00000 0.07108 917.00000 619.50464
0.05660 0.91440 -0.02046 0.10475 622.62096 0.04174 269.77216 1.00000 0.06917 917.00000 622.62096
0.05519 0.91440 -0.02014 0.11109 625.87931 0.04287 269.78927 1.00000 0.06731 917.00000 625.87931
0.05379 0.91440 -0.01981 0.11772 629.12592 0.04395 269.80670 1.00000 0.06548 917.00000 629.12592
0.05238 0.91440 -0.01948 0.12465 632.53877 0.04480 269.82676 1.00000 0.06369 917.00000 632.53877
0.05097 0.91440 -0.01914 0.13188 635.90532 0.04714 269.85775 1.00000 0.06193 917.00000 635.90532
0.04957 0.91440 -0.01879 0.13943 639.49851 0.04887 269.88372 1.00000 0.06019 917.00000 639.49851
0.04817 0.91440 -0.01844 0.14726 643.10074 0.04926 269.89919 1.00000 0.05850 917.00000 643.10074
0.04677 0.91440 -0.01808 0.15542 646.90448 0.05102 269.94651 1.00000 0.05687 917.00000 646.90448
0.04537 0.91440 -0.01771 0.16400 650.73032 0.05965 270.06000 1.00000 0.05529 917.00000 650.73032
0.04397 0.91440 -0.01734 0.17303 654.61122 0.06933 270.19206 1.00000 0.05373 917.00000 654.61122
0.04258 0.91440 -0.01695 0.18251 658.68689 0.07544 270.28793 1.00000 0.05218 917.00000 658.68689
0.04118 0.91440 -0.01656 0.19244 662.78040 0.08097 270.37184 1.00000 0.05067 917.00000 662.78040
0.03979 0.91440 -0.01616 0.20283 667.14619 0.08639 270.46100 1.00000 0.04920 917.00000 667.14619
0.03841 0.91440 -0.01576 0.21368 671.50753 0.09221 270.54260 1.00000 0.04779 917.00000 671.50753
0.03702 0.91440 -0.01534 0.22512 676.19097 0.09731 270.62454 1.00000 0.04646 917.00000 676.19097
0.03564 0.91440 -0.01492 0.23726 680.77786 0.10463 270.71626 1.00000 0.04517 917.00000 680.77786
0.03426 0.91440 -0.01448 0.25010 685.60152 0.11071 270.88047 1.00000 0.04391 917.00000 685.60152
0.03288 0.91440 -0.01404 0.26365 690.52405 0.11773 271.83838 1.00000 0.04267 917.00000 690.52405
0.03151 0.91440 -0.01358 0.27790 695.57375 0.12544 272.75888 0.62521 0.04148 917.00000 695.57375
0.03014 0.91440 -0.01312 0.29294 700.99507 0.13174 273.00396 0.39028 0.04035 917.00000 700.99507
0.02878 0.91440 -0.01264 0.30894 706.35649 0.14061 273.14362 0.28914 0.03927 917.00000 706.35649
0.02742 0.91440 -0.01215 0.32603 712.00873 0.14910 273.15000 0.33528 0.03820 917.00000 712.00873
0.02606 0.91440 -0.01164 0.34429 717.51469 0.15849 273.15000 0.23142 0.03713 917.00000 717.51469
0.02471 0.91440 -0.01113 0.36368 723.48659 0.16926 273.15000 0.22930 0.03608 917.00000 723.48659
0.02337 0.91440 -0.01060 0.38427 729.46313 0.17959 273.15000 0.23231 0.03507 917.00000 729.46313
0.02203 0.91440 -0.01005 0.40631 735.68915 0.18949 273.15000 0.11235 0.03410 917.00000 735.68915
0.02070 0.91440 -0.00949 0.43012 741.89079 0.19937 273.15000 0.16144 0.03312 917.00000 741.89079
0.01937 0.91440 -0.00890 0.45585 747.83154 0.21105 273.15000 0.12502 0.03209 917.00000 747.83154
0.01806 0.91440 -0.00830 0.48345 753.99276 0.22426 273.15000 0.14314 0.03101 917.00000 753.99276
0.01675 0.91440 -0.00768 0.51310 759.76797 0.23952 273.15000 0.10344 0.02990 917.00000 759.76797
0.01545 0.91440 -0.00704 0.54531 765.53881 0.25249 273.15000 0.14717 0.02861 917.00000 765.53881
0.01417 0.91440 -0.00637 0.58039 770.11428 0.26599 273.15000 0.14367 0.02668 917.00000 770.11428
0.01290 0.91440 -0.00568 0.61818 774.36413 0.28231 273.15000 0.14057 0.02398 917.00000 774.36413
0.01165 0.91440 -0.00496 0.65907 777.27647 0.30075 273.15000 0.13930 0.02167 917.00000 777.27647
0.01041 0.91440 -0.00421 0.70400 776.33519 0.32416 273.15000 0.09343 0.02087 917.00000 776.33519
0.00920 0.91440 -0.00342 0.75341 769.41601 0.35036 273.15000 0.12576 0.02105 917.00000 769.41601
0.00802 0.91440 -0.00259 0.80684 747.68852 0.38203 273.15000 0.09465 0.02122 917.00000 747.68852
0.00686 0.91440 -0.00172 0.86355 694.23764 0.41418 273.15000 0.12404 0.02090 917.00000 694.23764
0.00579 0.91440 -0.00084 0.92125 546.51983 0.44551 273.15000 0.08697 0.01969 917.00000 546.51983
0.00483 0.91440 0.00003 0.97655 483.95320 0.47961 273.15000 0.09757 0.01723 917.00000 483.95320
0.00398 0.91440 0.00089 1.02636 559.82709 0.51914 273.15000 0.16630 0.01348 917.00000 559.82709
0.00324 0.91440 0.00172 1.06749 491.08288 0.55816 273.15000 0.18380 0.00873 917.00000 491.08288
0.00260 0.91440 0.00252 1.09680 495.80727 0.59769 273.15000 0.34997 0.00393 917.00000 495.80727
0.00205 0.91440 0.00332 1.11136 504.40337 0.62767 273.15000 0.33216 0.00092 917.00000 504.40337
0.00158 0.91440 0.00410 1.10690 503.52514 0.63990 273.15000 0.33216 0.00334 917.00000 503.52514
0.00119 0.91440 0.00487 1.07804 501.46900 0.66595 273.15000 0.17494 0.01701 917.00000 501.46900
0.00087 0.91440 0.00562 1.02155 524.04805 0.69168 273.15000 0.13791 0.04776 917.00000 524.04805
0.00064 0.91440 0.00636 0.93673 686.55289 0.69799 273.15000 0.13791 0.10123 917.00000 686.55289
0.00046 0.91440 0.00710 0.82105 958.07933 0.70043 273.15000 0.16685 0.18243 917.00000 958.07933
0.00035 0.91440 0.00784 0.67326 1195.91999 0.69912 273.15000 0.18385 0.29098 917.00000 1195.91999
0.00031 0.91440 0.00858 0.49693 1327.88291 0.69146 273.15000 0.23619 0.42029 917.00000 1327.88291
0.00032 0.91440 0.00930 0.40225 1441.22928 0.68582 273.15000 0.23619 0.48903 917.00000 1441.22928
0.00041 0.91440 0.01002 0.08688 1541.95269 0.63401 273.15000 0.21175 0.61591 917.00000 1541.95269
0.00055 0.91440 0.01074 -0.13167 1566.32090 0.60002 273.15000 0.21603 0.65544 917.00000 1566.32090
0.00076 0.91440 0.01145 -0.35346 1570.78797 0.55347 273.15000 0.31571 0.65875 917.00000 1570.78797
0.00104 0.91440 0.01216 -0.56760 1567.92766 0.50696 273.15000 0.31571 0.61978 917.00000 1567.92766
0.00137 0.91440 0.01285 -0.76200 1550.56883 0.45974 273.15000 0.28588 0.55384 917.00000 1550.56883
0.00179 0.91440 0.01356 -0.93003 1518.12589 0.41716 273.15000 0.31124 0.51104 917.00000 1518.12589
0.00228 0.91440 0.01426 -1.07146 1475.35729 0.36654 273.15000 0.43207 0.50564 917.00000 1475.35729
0.00284 0.91440 0.01497 -1.18818 1428.07187 0.31489 273.07936 0.69048 0.49226 917.00000 1428.07187
0.00350 0.91440 0.01567 -1.27930 1378.72533 0.26844 272.40218 1.00000 0.44935 917.00000 1378.72533
0.00423 0.91440 0.01638 -1.34350 1327.61518 0.21803 270.74256 1.00000 0.39334 917.00000 1327.61518
0.00507 0.91440 0.01709 -1.38448 1276.45613 0.16585 269.61945 1.00000 0.34127 917.00000 1276.45613