#++++++++++++++++++++++++++++++++++++++++++++++++++++++++++++++++++++++++++++++++++++++++++++++++++++++++++++++++++++++++++++++++++
#
#   IPW-3 Cut/Slice DATA SUBMITTAL FORM for Test Case NACA0012_AE3933, May 18th 2026
#
#       NOMENCLATURE:
#                  X [m]:  X-coordinate of the surface (clean for reference)
#                  Y [m]:  Y-coordinate of the surface (clean for reference)
#                  Z [m]:  Z-coordinate of the surface (clean for reference)
#                 Cp [-]:  Pressure coefficient
#            HTC [W/m2K]:  Convective Heat Transfer Coefficient (on the rough surface)
#               Beta [-]:  Collection efficiency
#                 Ts [K]:  Surface temperature
#                 FF [-]:  Freezing fraction
#                  k [m]:  Surface roughness height if variable (OPTIONAL)
#         RhoIce [kg/m3]:  Ice density (OPTIONAL)
#     HTC_CLEAN [W/m2K]:  Convective Heat Transfer Coefficient on the surface without roughness (OPTIONAL)
#
#                XXmm:  Roughness height used for the case, in mm.
#                       In the zone name, use the format KS_XXmm.
#                       For example, if k_s = 1.5 mm, use KS_1p5mm.
#                       For Variable roughness, use KS_VAR
#
#    FLOW CONDITIONS:
#                                  AOA: 4.0 deg
#                           Mach Number: 0.3127 [-]
#       Mean aerodynamic chord (M.A.C.): 0.5334 [m]
#                       Reynolds Number: 3.8947 million (based on MAC)
#                       Freestream Temp: 270.95 [K]
#                        Reference area: 0.97548 [m2]
#               Moment Reference Center: 0.13335, 0, 0 [m] (X, Y, Z)
#
#    ICING CONDITIONS:
#                           Icing Time: 420 [s]
#                                  LWC: 0.55 [g/m3]
#                                  MVD: 20 [μm]
#
#              NOTES: 1. Please use at least 5 decimal places in the numerical values
#                     2. If data are NOT provided, please fill data fields with a numerical value of "-999"
#
#++++++++++++++++++++++++++++++++++++++++++++++++++++++++++++++++++++++++++++++++++++++++++++++++++++++++++++++++++++++++++++++++++

TITLE = "002_NACA0012_AE3933_01"
FILETYPE = FULL
VARIABLES = "X" "Y" "Z" "Cp" "HTC" "Beta" "Ts" "FF" "k" "RhoIce" "HTC_CLEAN"
ZONE T="SLICE_Y_0p9144_BINS01_KS_1mm_CUTDATA"
 I=1, J=1, K=1, DATAPACKING=POINT
-999.00000 -999.00000 -999.00000 -999.00000 -999.00000 -999.00000 -999.00000 -999.00000 -999.00000 -999.00000 -999.00000
ZONE T="SLICE_Y_0p9144_BINS03_KS_1mm_CUTDATA"
 I=372, J=1, K=1, DATAPACKING=POINT
0.53144 0.91440 -0.02864 0.24380 0.00000 0.00000 273.15000 -1.00000 0.02588 917.00000 0.00000
0.53052 0.91440 -0.02871 0.24408 0.00000 0.00000 273.15000 -1.00000 0.04493 917.00000 0.00000
0.52905 0.91440 -0.02881 0.23391 0.00000 0.00000 273.15000 -1.00000 0.04394 917.00000 0.00000
0.52669 0.91440 -0.02897 0.22394 0.00000 0.00000 273.15000 -1.00000 0.05033 917.00000 0.00000
0.52292 0.91440 -0.02922 0.20933 0.00000 0.00000 273.15000 -1.00000 0.05558 917.00000 0.00000
0.51916 0.91440 -0.02947 0.19673 0.00000 0.00000 273.15000 -1.00000 0.06130 917.00000 0.00000
0.51540 0.91440 -0.02971 0.18524 0.00000 0.00000 273.15000 -1.00000 0.06586 917.00000 0.00000
0.51164 0.91440 -0.02996 0.17505 0.00000 0.00000 273.15000 -1.00000 0.07001 917.00000 0.00000
0.50788 0.91440 -0.03019 0.16579 0.00000 0.00000 273.15000 -1.00000 0.07366 917.00000 0.00000
0.50412 0.91440 -0.03042 0.15729 0.00000 0.00000 273.15000 -1.00000 0.07697 917.00000 0.00000
0.50036 0.91440 -0.03065 0.14945 0.00000 0.00000 273.15000 -1.00000 0.08001 917.00000 0.00000
0.49660 0.91440 -0.03088 0.14220 0.00000 0.00000 273.15000 -1.00000 0.08280 917.00000 0.00000
0.49284 0.91440 -0.03110 0.13546 0.00000 0.00000 273.15000 -1.00000 0.08536 917.00000 0.00000
0.48907 0.91440 -0.03131 0.12916 0.00000 0.00000 273.15000 -1.00000 0.08772 917.00000 0.00000
0.48531 0.91440 -0.03152 0.12323 0.00000 0.00000 273.15000 -1.00000 0.08992 917.00000 0.00000
0.48155 0.91440 -0.03173 0.11766 0.00000 0.00000 273.15000 -1.00000 0.09198 917.00000 0.00000
0.47779 0.91440 -0.03194 0.11239 0.00000 0.00000 273.15000 -1.00000 0.09390 917.00000 0.00000
0.47403 0.91440 -0.03214 0.10740 0.00000 0.00000 273.15000 -1.00000 0.09570 917.00000 0.00000
0.47027 0.91440 -0.03233 0.10264 0.00000 0.00000 273.15000 -1.00000 0.09741 917.00000 0.00000
0.46650 0.91440 -0.03253 0.09811 0.00000 0.00000 273.15000 -1.00000 0.09903 917.00000 0.00000
0.46274 0.91440 -0.03272 0.09381 0.00000 0.00000 273.15000 -1.00000 0.10055 917.00000 0.00000
0.45898 0.91440 -0.03290 0.08966 0.00000 0.00000 273.15000 -1.00000 0.10199 917.00000 0.00000
0.45521 0.91440 -0.03309 0.08570 0.00000 0.00000 273.15000 -1.00000 0.10337 917.00000 0.00000
0.45145 0.91440 -0.03327 0.08188 0.00000 0.00000 273.15000 -1.00000 0.10468 917.00000 0.00000
0.44769 0.91440 -0.03344 0.07822 0.00000 0.00000 273.15000 -1.00000 0.10595 917.00000 0.00000
0.44392 0.91440 -0.03361 0.07470 0.00000 0.00000 273.15000 -1.00000 0.10715 917.00000 0.00000
0.44016 0.91440 -0.03378 0.07127 0.00000 0.00000 273.15000 -1.00000 0.10831 917.00000 0.00000
0.43640 0.91440 -0.03395 0.06798 0.00000 0.00000 273.15000 -1.00000 0.10944 917.00000 0.00000
0.43263 0.91440 -0.03411 0.06479 0.00000 0.00000 273.15000 -1.00000 0.11051 917.00000 0.00000
0.42887 0.91440 -0.03426 0.06167 0.00000 0.00000 273.15000 -1.00000 0.11157 917.00000 0.00000
0.42511 0.91440 -0.03442 0.05866 0.00000 0.00000 273.15000 -1.00000 0.11260 917.00000 0.00000
0.42134 0.91440 -0.03457 0.05575 0.00000 0.00000 273.15000 -1.00000 0.11359 917.00000 0.00000
0.41758 0.91440 -0.03472 0.05291 0.00000 0.00000 273.15000 -1.00000 0.11455 917.00000 0.00000
0.41381 0.91440 -0.03486 0.05013 0.00000 0.00000 273.15000 -1.00000 0.11549 917.00000 0.00000
0.41005 0.91440 -0.03500 0.04742 0.00000 0.00000 273.15000 -1.00000 0.11641 917.00000 0.00000
0.40628 0.91440 -0.03514 0.04477 0.00000 0.00000 273.15000 -1.00000 0.11732 917.00000 0.00000
0.40252 0.91440 -0.03527 0.04218 0.00000 0.00000 273.15000 -1.00000 0.11822 917.00000 0.00000
0.39875 0.91440 -0.03540 0.03965 371.62840 0.00000 270.45906 -1.00000 0.11910 917.00000 371.62840
0.39499 0.91440 -0.03553 0.03719 372.10965 0.00000 270.45822 -1.00000 0.11996 917.00000 372.10965
0.39122 0.91440 -0.03565 0.03476 373.47877 0.00000 270.45684 -1.00000 0.12080 917.00000 373.47877
0.38745 0.91440 -0.03577 0.03238 374.85397 0.00000 270.45547 -1.00000 0.12164 917.00000 374.85397
0.38369 0.91440 -0.03589 0.03004 376.22682 0.00000 270.45414 -1.00000 0.12248 917.00000 376.22682
0.37992 0.91440 -0.03600 0.02775 377.59729 0.00000 270.45283 -1.00000 0.12330 917.00000 377.59729
0.37616 0.91440 -0.03611 0.02549 378.97764 0.00000 270.45154 -1.00000 0.12412 917.00000 378.97764
0.37239 0.91440 -0.03621 0.02327 380.36496 0.00000 270.45027 -1.00000 0.12494 917.00000 380.36496
0.36863 0.91440 -0.03631 0.02107 381.75851 0.00000 270.44901 -1.00000 0.12576 917.00000 381.75851
0.36486 0.91440 -0.03641 0.01892 383.14858 0.00000 270.44779 -1.00000 0.12658 917.00000 383.14858
0.36109 0.91440 -0.03651 0.01681 384.54622 0.00000 270.44658 -1.00000 0.12739 917.00000 384.54622
0.35733 0.91440 -0.03660 0.01474 385.95286 0.00000 270.44540 -1.00000 0.12818 917.00000 385.95286
0.35356 0.91440 -0.03668 0.01268 387.37463 0.00000 270.44421 -1.00000 0.12897 917.00000 387.37463
0.34980 0.91440 -0.03677 0.01062 388.80574 0.00000 270.44304 -1.00000 0.12979 917.00000 388.80574
0.34603 0.91440 -0.03684 0.00861 390.23950 0.00000 270.44190 -1.00000 0.13061 917.00000 390.23950
0.34226 0.91440 -0.03692 0.00664 391.68788 0.00000 270.44077 -1.00000 0.13142 917.00000 391.68788
0.33849 0.91440 -0.03699 0.00469 393.14820 0.00000 270.43965 -1.00000 0.13223 917.00000 393.14820
0.33473 0.91440 -0.03706 0.00275 394.62216 0.00000 270.43854 -1.00000 0.13305 917.00000 394.62216
0.33096 0.91440 -0.03712 0.00084 396.09993 0.00000 270.43745 -1.00000 0.13388 917.00000 396.09993
0.32719 0.91440 -0.03718 -0.00103 397.59542 0.00000 270.43638 -1.00000 0.13471 917.00000 397.59542
0.32343 0.91440 -0.03723 -0.00290 399.11194 0.00000 270.43531 -1.00000 0.13554 917.00000 399.11194
0.31966 0.91440 -0.03728 -0.00474 400.64125 0.00000 270.43426 -1.00000 0.13640 917.00000 400.64125
0.31589 0.91440 -0.03733 -0.00654 402.17137 0.00000 270.43323 -1.00000 0.13725 917.00000 402.17137
0.31213 0.91440 -0.03737 -0.00834 403.73096 0.00000 270.43220 -1.00000 0.13812 917.00000 403.73096
0.30836 0.91440 -0.03741 -0.01010 405.30642 0.00000 270.43119 -1.00000 0.13901 917.00000 405.30642
0.30459 0.91440 -0.03744 -0.01184 406.89923 0.00000 270.43020 -1.00000 0.13989 917.00000 406.89923
0.30082 0.91440 -0.03747 -0.01356 408.50650 0.00000 270.42921 -1.00000 0.14079 917.00000 408.50650
0.29706 0.91440 -0.03749 -0.01525 410.12724 0.00000 270.42825 -1.00000 0.14171 917.00000 410.12724
0.29329 0.91440 -0.03751 -0.01693 411.78013 0.00000 270.42728 -1.00000 0.14263 917.00000 411.78013
0.28952 0.91440 -0.03752 -0.01858 413.44978 0.00000 270.42634 -1.00000 0.14358 917.00000 413.44978
0.28575 0.91440 -0.03753 -0.02019 415.13788 0.00000 270.42541 -1.00000 0.14454 917.00000 415.13788
0.28199 0.91440 -0.03753 -0.02179 416.83866 0.00000 270.42450 -1.00000 0.14551 917.00000 416.83866
0.27822 0.91440 -0.03753 -0.02336 418.57346 0.00000 270.42360 -1.00000 0.14649 917.00000 418.57346
0.27445 0.91440 -0.03752 -0.02491 420.33485 0.00000 270.42272 -1.00000 0.14750 917.00000 420.33485
0.27068 0.91440 -0.03751 -0.02643 422.11697 0.00000 270.42185 -1.00000 0.14853 917.00000 422.11697
0.26692 0.91440 -0.03749 -0.02790 423.91018 0.00000 270.42100 -1.00000 0.14956 917.00000 423.91018
0.26315 0.91440 -0.03746 -0.02936 425.74429 0.00000 270.42017 -1.00000 0.15062 917.00000 425.74429
0.25938 0.91440 -0.03743 -0.03078 427.60042 0.00000 270.41935 -1.00000 0.15170 917.00000 427.60042
0.25562 0.91440 -0.03740 -0.03218 429.48977 0.00000 270.41855 -1.00000 0.15279 917.00000 429.48977
0.25185 0.91440 -0.03735 -0.03353 431.39779 0.00000 270.41778 -1.00000 0.15392 917.00000 431.39779
0.24808 0.91440 -0.03730 -0.03484 433.33334 0.00000 270.41703 -1.00000 0.15504 917.00000 433.33334
0.24431 0.91440 -0.03725 -0.03613 435.31250 0.00000 270.41629 -1.00000 0.15619 917.00000 435.31250
0.24055 0.91440 -0.03719 -0.03737 437.31613 0.00000 270.41558 -1.00000 0.15736 917.00000 437.31613
0.23678 0.91440 -0.03712 -0.03858 439.35465 0.00000 270.41488 -1.00000 0.15856 917.00000 439.35465
0.23301 0.91440 -0.03704 -0.03975 441.42064 0.00000 270.41422 -1.00000 0.15981 917.00000 441.42064
0.22925 0.91440 -0.03696 -0.04084 443.52559 0.00000 270.41359 -1.00000 0.16105 917.00000 443.52559
0.22548 0.91440 -0.03687 -0.04194 445.67825 0.00000 270.41297 -1.00000 0.16234 917.00000 445.67825
0.22172 0.91440 -0.03678 -0.04295 447.85655 0.00000 270.41238 -1.00000 0.16369 917.00000 447.85655
0.21795 0.91440 -0.03667 -0.04389 450.06222 0.00000 270.41185 -1.00000 0.16502 917.00000 450.06222
0.21418 0.91440 -0.03656 -0.04479 452.32136 0.00000 270.41133 -1.00000 0.16640 917.00000 452.32136
0.21042 0.91440 -0.03644 -0.04563 454.62056 0.00000 270.41085 -1.00000 0.16783 917.00000 454.62056
0.20665 0.91440 -0.03631 -0.04636 456.95446 0.00000 270.41043 -1.00000 0.16926 917.00000 456.95446
0.20289 0.91440 -0.03618 -0.04705 459.32650 0.00000 270.41003 -1.00000 0.17072 917.00000 459.32650
0.19912 0.91440 -0.03603 -0.04767 461.75026 0.00000 270.40968 -1.00000 0.17224 917.00000 461.75026
0.19536 0.91440 -0.03588 -0.04816 464.21039 0.00000 270.40940 -1.00000 0.17378 917.00000 464.21039
0.19160 0.91440 -0.03571 -0.04857 466.72634 0.00000 270.40916 -1.00000 0.17532 917.00000 466.72634
0.18783 0.91440 -0.03554 -0.04892 469.28690 0.00000 270.40897 -1.00000 0.17693 917.00000 469.28690
0.18407 0.91440 -0.03536 -0.04913 471.88397 0.00000 270.40885 -1.00000 0.17857 917.00000 471.88397
0.18031 0.91440 -0.03517 -0.04918 474.52991 0.00000 270.40882 -1.00000 0.18019 917.00000 474.52991
0.17654 0.91440 -0.03497 -0.04912 477.22658 0.00000 270.40885 -1.00000 0.18182 917.00000 477.22658
0.17278 0.91440 -0.03475 -0.04896 479.98638 0.00000 270.40894 -1.00000 0.18349 917.00000 479.98638
0.16902 0.91440 -0.03453 -0.04868 482.79430 0.00000 270.40910 -1.00000 0.18522 917.00000 482.79430
0.16526 0.91440 -0.03430 -0.04826 485.67628 0.00000 270.40934 -1.00000 0.18700 917.00000 485.67628
0.16150 0.91440 -0.03405 -0.04769 488.62333 0.00000 270.40967 -1.00000 0.18882 917.00000 488.62333
0.15774 0.91440 -0.03380 -0.04696 491.63679 0.00000 270.41009 -1.00000 0.19067 917.00000 491.63679
0.15399 0.91440 -0.03353 -0.04608 494.70108 0.00000 270.41060 -1.00000 0.19255 917.00000 494.70108
0.15023 0.91440 -0.03325 -0.04503 497.86153 0.00000 270.41120 -1.00000 0.19449 917.00000 497.86153
0.14647 0.91440 -0.03295 -0.04381 501.10478 0.00000 270.41190 -1.00000 0.19647 917.00000 501.10478
0.14272 0.91440 -0.03265 -0.04241 504.43724 0.00000 270.41264 -1.00000 0.19849 917.00000 504.43724
0.13896 0.91440 -0.03233 -0.04080 507.84446 0.00000 270.36434 0.00000 0.20054 917.00000 507.84446
0.13521 0.91440 -0.03199 -0.03899 511.35089 0.00139 269.93454 0.00000 0.20263 917.00000 511.35089
0.13146 0.91440 -0.03164 -0.03694 514.96992 0.00482 269.17541 0.00000 0.20476 917.00000 514.96992
0.12771 0.91440 -0.03128 -0.03458 518.67050 0.00737 269.12368 1.00000 0.20688 917.00000 518.67050
0.12396 0.91440 -0.03090 -0.03197 522.48520 0.00623 269.11408 1.00000 0.20901 917.00000 522.48520
0.12034 0.91440 -0.03052 -0.02917 526.26479 0.00630 269.12089 1.00000 0.21117 917.00000 526.26479
0.11690 0.91440 -0.03014 -0.02623 530.00197 0.00980 269.17994 1.00000 0.21330 917.00000 530.00197
0.11362 0.91440 -0.02977 -0.02319 533.64448 0.01228 269.22943 1.00000 0.21535 917.00000 533.64448
0.11049 0.91440 -0.02940 -0.01999 537.20337 0.01346 269.25624 1.00000 0.21729 917.00000 537.20337
0.10752 0.91440 -0.02904 -0.01667 540.68540 0.01460 269.27911 1.00000 0.21906 917.00000 540.68540
0.10469 0.91440 -0.02868 -0.01333 544.11175 0.01570 269.30110 1.00000 0.22070 917.00000 544.11175
0.10200 0.91440 -0.02833 -0.00986 547.45054 0.01681 269.32286 1.00000 0.22220 917.00000 547.45054
0.09943 0.91440 -0.02799 -0.00629 550.67164 0.01788 269.34371 1.00000 0.22352 917.00000 550.67164
0.09699 0.91440 -0.02765 -0.00273 553.87402 0.01894 269.36475 1.00000 0.22477 917.00000 553.87402
0.09467 0.91440 -0.02732 0.00085 556.96218 0.02010 269.38613 1.00000 0.22604 917.00000 556.96218
0.09246 0.91440 -0.02700 0.00463 559.92777 0.02110 269.40554 1.00000 0.22705 917.00000 559.92777
0.09035 0.91440 -0.02669 0.00836 562.90007 0.02205 269.42348 1.00000 0.22758 917.00000 562.90007
0.08835 0.91440 -0.02638 0.01146 565.91630 0.02292 269.43987 1.00000 0.22850 917.00000 565.91630
0.08644 0.91440 -0.02609 0.01531 568.65751 0.02378 269.45768 1.00000 0.22903 917.00000 568.65751
0.08454 0.91440 -0.02578 0.01963 571.36619 0.02514 269.48067 1.00000 0.22480 917.00000 571.36619
0.08263 0.91440 -0.02548 0.02351 574.28539 0.02636 269.50207 1.00000 0.21772 917.00000 574.28539
0.08073 0.91440 -0.02516 0.02777 577.27805 0.02719 269.51936 1.00000 0.21117 917.00000 577.27805
0.07883 0.91440 -0.02484 0.03222 580.32502 0.02823 269.53834 1.00000 0.20440 917.00000 580.32502
0.07693 0.91440 -0.02451 0.03689 583.45156 0.02945 269.55945 1.00000 0.19785 917.00000 583.45156
0.07503 0.91440 -0.02417 0.04181 586.63899 0.03055 269.57940 1.00000 0.19140 917.00000 586.63899
0.07313 0.91440 -0.02383 0.04697 589.91422 0.03161 269.59900 1.00000 0.18509 917.00000 589.91422
0.07123 0.91440 -0.02347 0.05241 593.25978 0.03281 269.62030 1.00000 0.17890 917.00000 593.25978
0.06934 0.91440 -0.02311 0.05810 596.71172 0.03419 269.64343 1.00000 0.17285 917.00000 596.71172
0.06744 0.91440 -0.02275 0.06407 600.25834 0.03541 269.66544 1.00000 0.16696 917.00000 600.25834
0.06555 0.91440 -0.02237 0.07035 603.89399 0.03667 269.68843 1.00000 0.16124 917.00000 603.89399
0.06366 0.91440 -0.02198 0.07700 607.60765 0.03834 269.71471 1.00000 0.15567 917.00000 607.60765
0.06177 0.91440 -0.02159 0.08401 611.43026 0.03979 269.73998 1.00000 0.15021 917.00000 611.43026
0.05988 0.91440 -0.02119 0.09136 615.37152 0.04123 269.76408 1.00000 0.14491 917.00000 615.37152
0.05800 0.91440 -0.02077 0.09910 619.45053 0.04263 269.78806 1.00000 0.13979 917.00000 619.45053
0.05612 0.91440 -0.02035 0.10728 623.67113 0.04417 269.81437 1.00000 0.13484 917.00000 623.67113
0.05424 0.91440 -0.01992 0.11593 628.01130 0.04607 269.84378 1.00000 0.13004 917.00000 628.01130
0.05236 0.91440 -0.01947 0.12512 632.47152 0.04777 269.87253 1.00000 0.12537 917.00000 632.47152
0.05049 0.91440 -0.01902 0.13483 637.09905 0.04962 269.90247 1.00000 0.12080 917.00000 637.09905
0.04861 0.91440 -0.01855 0.14506 641.90378 0.05163 269.93376 1.00000 0.11639 917.00000 641.90378
0.04674 0.91440 -0.01807 0.15591 646.88405 0.05349 269.96554 1.00000 0.11214 917.00000 646.88405
0.04488 0.91440 -0.01758 0.16746 652.03227 0.05557 270.02857 1.00000 0.10802 917.00000 652.03227
0.04302 0.91440 -0.01708 0.17980 657.34652 0.06736 270.19258 1.00000 0.10402 917.00000 657.34652
0.04116 0.91440 -0.01656 0.19296 662.86384 0.08261 270.39166 1.00000 0.10011 917.00000 662.86384
0.03930 0.91440 -0.01602 0.20690 668.63079 0.09140 270.53509 1.00000 0.09636 917.00000 668.63079
0.03745 0.91440 -0.01547 0.22180 674.63902 0.09918 270.65756 1.00000 0.09284 917.00000 674.63902
0.03561 0.91440 -0.01491 0.23784 680.82655 0.10720 271.07153 1.00000 0.08948 917.00000 680.82655
0.03377 0.91440 -0.01433 0.25514 687.21321 0.11639 272.19441 0.81330 0.08623 917.00000 687.21321
0.03194 0.91440 -0.01373 0.27368 693.93362 0.12646 272.89041 0.54288 0.08309 917.00000 693.93362
0.03011 0.91440 -0.01311 0.29357 701.00283 0.13639 272.93812 0.36676 0.08014 917.00000 701.00283
0.02829 0.91440 -0.01247 0.31519 708.30718 0.14750 272.95922 0.28264 0.07733 917.00000 708.30718
0.02648 0.91440 -0.01180 0.33880 715.79164 0.15916 273.06135 0.23360 0.07452 917.00000 715.79164
0.02468 0.91440 -0.01111 0.36439 723.62311 0.17185 273.14658 0.20402 0.07171 917.00000 723.62311
0.02288 0.91440 -0.01040 0.39218 731.80543 0.18588 273.15000 0.18347 0.06904 917.00000 731.80543
0.02110 0.91440 -0.00966 0.42281 740.04268 0.20087 273.15000 0.14700 0.06647 917.00000 740.04268
0.01933 0.91440 -0.00889 0.45668 748.23153 0.21716 273.15000 0.13796 0.06387 917.00000 748.23153
0.01758 0.91440 -0.00808 0.49392 756.40889 0.23382 273.15000 0.13139 0.06127 917.00000 756.40889
0.01585 0.91440 -0.00724 0.53525 764.13572 0.25302 273.15000 0.12673 0.05855 917.00000 764.13572
0.01413 0.91440 -0.00635 0.58156 770.66059 0.27627 273.15000 0.14341 0.05488 917.00000 770.66059
0.01244 0.91440 -0.00542 0.63302 775.35618 0.30101 273.15000 0.14165 0.04940 917.00000 775.35618
0.01078 0.91440 -0.00444 0.69055 775.92967 0.32697 273.15000 0.12389 0.04429 917.00000 775.92967
0.00916 0.91440 -0.00339 0.75561 765.60811 0.36228 273.15000 0.14287 0.04256 917.00000 765.60811
0.00759 0.91440 -0.00228 0.82826 723.85303 0.40500 273.15000 0.14437 0.04241 917.00000 723.85303
0.00609 0.91440 -0.00109 0.90545 581.30829 0.44771 273.15000 0.13391 0.03999 917.00000 581.30829
0.00480 0.91440 0.00006 0.97897 507.32484 0.49532 273.15000 0.11984 0.03367 917.00000 507.32484
0.00370 0.91440 0.00119 1.04222 517.07772 0.54045 273.15000 0.18018 0.02324 917.00000 517.07772
0.00279 0.91440 0.00228 1.08841 491.17212 0.57745 273.15000 0.35944 0.01084 917.00000 491.17212
0.00203 0.91440 0.00334 1.11042 501.71801 0.62490 273.15000 0.32284 0.00288 917.00000 501.71801
0.00143 0.91440 0.00437 1.09833 499.97538 0.66450 273.15000 0.32284 0.01591 917.00000 499.97538
0.00097 0.91440 0.00538 1.04093 525.08725 0.68061 273.15000 0.15808 0.07593 917.00000 525.08725
0.00063 0.91440 0.00637 0.93319 702.61855 0.69732 273.15000 0.11585 0.20997 917.00000 702.61855
0.00042 0.91440 0.00735 0.77153 1022.07476 0.70770 273.15000 0.17100 0.43695 917.00000 1022.07476
0.00031 0.91440 0.00834 0.55616 1244.79339 0.70460 273.15000 0.18654 0.75150 917.00000 1244.79339
0.00032 0.91440 0.00930 0.43602 1380.05469 0.70237 273.15000 0.17305 0.92764 917.00000 1380.05469
0.00045 0.91440 0.01025 0.01478 1517.96661 0.62821 273.15000 0.21978 1.24943 917.00000 1517.96661
0.00068 0.91440 0.01121 -0.27736 1580.79719 0.57155 273.15000 0.23971 1.30268 917.00000 1580.79719
0.00103 0.91440 0.01215 -0.56261 1574.68202 0.51143 273.15000 0.27138 1.23086 917.00000 1574.68202
0.00150 0.91440 0.01308 -0.81560 1543.20360 0.45297 273.15000 0.32029 1.13776 917.00000 1543.20360
0.00209 0.91440 0.01401 -1.02366 1494.07378 0.38974 273.15000 0.34365 1.09022 917.00000 1494.07378
0.00283 0.91440 0.01495 -1.18748 1433.39158 0.32471 273.10779 0.40388 1.00882 917.00000 1433.39158
0.00371 0.91440 0.01589 -1.30398 1366.49741 0.25866 272.56453 0.93466 0.86766 917.00000 1366.49741
0.00475 0.91440 0.01683 -1.37299 1298.74872 0.18163 270.94257 1.00000 0.71990 917.00000 1298.74872
0.00599 0.91440 0.01779 -1.40947 1229.75419 0.12015 269.46546 1.00000 0.59834 917.00000 1229.75419
0.00742 0.91440 0.01875 -1.42390 1166.93231 0.09310 269.02383 1.00000 0.49758 917.00000 1166.93231
0.00905 0.91440 0.01971 -1.41906 1108.10040 0.07793 268.89540 1.00000 0.41550 917.00000 1108.10040
0.01075 0.91440 0.02060 -1.40453 1058.29579 0.06442 268.80356 1.00000 0.35590 917.00000 1058.29579
0.01249 0.91440 0.02141 -1.38663 1016.47594 0.05272 268.71935 1.00000 0.31202 917.00000 1016.47594
0.01426 0.91440 0.02215 -1.36483 980.27526 0.04271 268.64292 1.00000 0.27869 917.00000 980.27526
0.01605 0.91440 0.02284 -1.34141 948.72943 0.03380 268.57264 1.00000 0.25359 917.00000 948.72943
0.01786 0.91440 0.02348 -1.31840 920.96092 0.02613 268.50876 1.00000 0.23437 917.00000 920.96092
0.01969 0.91440 0.02407 -1.29520 896.29373 0.01964 268.45144 1.00000 0.21985 917.00000 896.29373
0.02153 0.91440 0.02462 -1.27253 874.14360 0.01358 268.42165 1.00000 0.20902 917.00000 874.14360
0.02338 0.91440 0.02514 -1.25090 854.21813 0.00518 268.82488 0.00000 0.20068 917.00000 854.21813
0.02523 0.91440 0.02563 -1.22994 836.15670 0.00000 269.52546 -1.00000 0.19416 917.00000 836.15670
0.02710 0.91440 0.02609 -1.20944 819.58390 0.00000 269.71774 -1.00000 0.18938 917.00000 819.58390
0.02897 0.91440 0.02652 -1.18988 804.34694 0.00000 269.73545 -1.00000 0.18614 917.00000 804.34694
0.03085 0.91440 0.02692 -1.17130 790.26969 0.00000 269.74687 -1.00000 0.18392 917.00000 790.26969
0.03273 0.91440 0.02730 -1.15323 777.16948 0.00000 269.75785 -1.00000 0.18245 917.00000 777.16948
0.03461 0.91440 0.02767 -1.13567 764.93164 0.00000 269.76847 -1.00000 0.18176 917.00000 764.93164
0.03650 0.91440 0.02801 -1.11895 753.52643 0.00000 269.77862 -1.00000 0.18179 917.00000 753.52643
0.03840 0.91440 0.02833 -1.10301 742.87463 0.00000 269.78830 -1.00000 0.18231 917.00000 742.87463
0.04029 0.91440 0.02863 -1.08751 732.80687 0.00000 269.79771 -1.00000 0.18319 917.00000 732.80687
0.04219 0.91440 0.02892 -1.07235 723.29752 0.00000 269.80684 -1.00000 0.18447 917.00000 723.29752
0.04409 0.91440 0.02919 -1.05768 714.27530 0.00000 269.81570 -1.00000 0.18624 917.00000 714.27530
0.04599 0.91440 0.02944 -1.04369 705.76976 0.00000 269.82417 -1.00000 0.18841 917.00000 705.76976
0.04790 0.91440 0.02969 -1.03016 697.71257 0.00000 269.83233 -1.00000 0.19086 917.00000 697.71257
0.04980 0.91440 0.02991 -1.01699 690.06511 0.00000 269.84023 -1.00000 0.19362 917.00000 690.06511
0.05171 0.91440 0.03013 -1.00421 682.76791 0.00000 269.84788 -1.00000 0.19671 917.00000 682.76791
0.05362 0.91440 0.03033 -0.99183 675.77206 0.00000 269.85532 -1.00000 0.20013 917.00000 675.77206
0.05553 0.91440 0.03052 -0.97993 669.09165 0.00000 269.86250 -1.00000 0.20385 917.00000 669.09165
0.05744 0.91440 0.03070 -0.96844 662.70641 0.00000 269.86943 -1.00000 0.20777 917.00000 662.70641
0.05936 0.91440 0.03087 -0.95721 656.58621 0.00000 269.87617 -1.00000 0.21187 917.00000 656.58621
0.06127 0.91440 0.03103 -0.94627 650.68558 0.00000 269.88276 -1.00000 0.21615 917.00000 650.68558
0.06318 0.91440 0.03118 -0.93559 645.02354 0.00000 269.88916 -1.00000 0.22065 917.00000 645.02354
0.06510 0.91440 0.03132 -0.92521 639.56435 0.00000 269.89539 -1.00000 0.22538 917.00000 639.56435
0.06701 0.91440 0.03144 -0.91518 634.32680 0.00000 269.90141 -1.00000 0.23026 917.00000 634.32680
0.06893 0.91440 0.03156 -0.90537 629.26171 0.00000 269.90730 -1.00000 0.23519 917.00000 629.26171
0.07085 0.91440 0.03167 -0.89575 624.36679 0.00000 269.91306 -1.00000 0.24025 917.00000 624.36679
0.07276 0.91440 0.03178 -0.88632 619.64416 0.00000 269.91868 -1.00000 0.24546 917.00000 619.64416
0.07468 0.91440 0.03187 -0.87709 615.07361 0.00000 269.92417 -1.00000 0.25086 917.00000 615.07361
0.07660 0.91440 0.03196 -0.86814 610.64900 0.00000 269.92952 -1.00000 0.25640 917.00000 610.64900
0.07852 0.91440 0.03204 -0.85935 606.34895 0.00000 269.93477 -1.00000 0.26201 917.00000 606.34895
0.08044 0.91440 0.03211 -0.85070 602.15927 0.00000 269.93994 -1.00000 0.26775 917.00000 602.15927
0.08235 0.91440 0.03217 -0.84221 598.08394 0.00000 269.94503 -1.00000 0.27352 917.00000 598.08394
0.08427 0.91440 0.03223 -0.83378 594.11323 0.00000 269.95004 -1.00000 0.27948 917.00000 594.11323
0.08619 0.91440 0.03228 -0.82563 590.26598 0.00000 269.95492 -1.00000 0.28547 917.00000 590.26598
0.08811 0.91440 0.03232 -0.81748 586.53931 0.00000 269.95964 -1.00000 0.29237 917.00000 586.53931
0.09003 0.91440 0.03235 -0.81069 583.04768 0.00000 269.96396 -1.00000 0.29554 917.00000 583.04768
0.09189 0.91440 0.03238 -0.80322 579.59777 0.00000 269.96845 -1.00000 0.29213 917.00000 579.59777
0.09383 0.91440 0.03241 -0.79429 575.91838 0.00000 269.97344 -1.00000 0.28834 917.00000 575.91838
0.09588 0.91440 0.03242 -0.78648 572.30110 0.00000 269.97825 -1.00000 0.28552 917.00000 572.30110
0.09802 0.91440 0.03244 -0.77848 568.66716 0.00000 269.98304 -1.00000 0.28192 917.00000 568.66716
0.10028 0.91440 0.03244 -0.76988 564.89919 0.00000 269.98810 -1.00000 0.27804 917.00000 564.89919
0.10264 0.91440 0.03244 -0.76108 561.04981 0.00000 269.99332 -1.00000 0.27426 917.00000 561.04981
0.10513 0.91440 0.03243 -0.75205 557.10383 0.00000 269.99871 -1.00000 0.27038 917.00000 557.10383
0.10774 0.91440 0.03240 -0.74273 553.09139 0.00000 270.00423 -1.00000 0.26642 917.00000 553.09139
0.11048 0.91440 0.03237 -0.73316 549.00784 0.00000 270.00991 -1.00000 0.26232 917.00000 549.00784
0.11335 0.91440 0.03232 -0.72320 544.81446 0.00000 270.01582 -1.00000 0.25807 917.00000 544.81446
0.11637 0.91440 0.03226 -0.71297 540.54712 0.00000 270.02188 -1.00000 0.25381 917.00000 540.54712
0.11954 0.91440 0.03218 -0.70247 536.21967 0.00000 270.02809 -1.00000 0.24944 917.00000 536.21967
0.12287 0.91440 0.03209 -0.69161 531.76866 0.00000 270.03456 -1.00000 0.24503 917.00000 531.76866
0.12637 0.91440 0.03198 -0.68048 527.28603 0.00000 270.04113 -1.00000 0.24066 917.00000 527.28603
0.13003 0.91440 0.03184 -0.66904 522.71403 0.00000 270.04790 -1.00000 0.23631 917.00000 522.71403
0.13382 0.91440 0.03169 -0.65752 518.14834 0.00000 270.05473 -1.00000 0.23209 917.00000 518.14834
0.13760 0.91440 0.03152 -0.64618 513.74092 0.00000 270.06140 -1.00000 0.22807 917.00000 513.74092
0.14138 0.91440 0.03134 -0.63505 509.44050 0.00000 270.06798 -1.00000 0.22422 917.00000 509.44050
0.14517 0.91440 0.03114 -0.62410 505.26296 0.00000 270.07445 -1.00000 0.22055 917.00000 505.26296
0.14895 0.91440 0.03092 -0.61334 501.19523 0.00000 270.08081 -1.00000 0.21704 917.00000 501.19523
0.15273 0.91440 0.03070 -0.60276 497.25135 0.00000 270.08703 -1.00000 0.21368 917.00000 497.25135
0.15651 0.91440 0.03046 -0.59237 493.41917 0.00000 270.09314 -1.00000 0.21045 917.00000 493.41917
0.16029 0.91440 0.03021 -0.58215 489.66935 0.00000 270.09917 -1.00000 0.20733 917.00000 489.66935
0.16407 0.91440 0.02994 -0.57210 486.01283 0.00000 270.10510 -1.00000 0.20429 917.00000 486.01283
0.16784 0.91440 0.02967 -0.56219 482.44485 0.00000 270.11093 -1.00000 0.20133 917.00000 482.44485
0.17162 0.91440 0.02938 -0.55243 478.97295 0.00000 270.11666 -1.00000 0.19846 917.00000 478.97295
0.17539 0.91440 0.02908 -0.54280 475.57749 0.00000 270.12231 -1.00000 0.19568 917.00000 475.57749
0.17917 0.91440 0.02877 -0.53330 472.24614 0.00000 270.12790 -1.00000 0.19300 917.00000 472.24614
0.18294 0.91440 0.02845 -0.52394 468.98867 0.00000 270.13340 -1.00000 0.19042 917.00000 468.98867
0.18672 0.91440 0.02812 -0.51472 465.80393 0.00000 270.13882 -1.00000 0.18794 917.00000 465.80393
0.19049 0.91440 0.02778 -0.50564 462.70908 0.00000 270.14412 -1.00000 0.18555 917.00000 462.70908
0.19426 0.91440 0.02743 -0.49666 459.65415 0.00000 270.14940 -1.00000 0.18321 917.00000 459.65415
0.19803 0.91440 0.02706 -0.48776 456.65341 0.00000 270.15462 -1.00000 0.18094 917.00000 456.65341
0.20180 0.91440 0.02670 -0.47899 453.71421 0.00000 270.15976 -1.00000 0.17878 917.00000 453.71421
0.20557 0.91440 0.02632 -0.47035 450.83623 0.00000 270.16483 -1.00000 0.17670 917.00000 450.83623
0.20933 0.91440 0.02593 -0.46180 448.02483 0.00000 270.16981 -1.00000 0.17465 917.00000 448.02483
0.21310 0.91440 0.02553 -0.45333 445.24189 0.00000 270.17477 -1.00000 0.17267 917.00000 445.24189
0.21687 0.91440 0.02513 -0.44498 442.51658 0.00000 270.17966 -1.00000 0.17077 917.00000 442.51658
0.22063 0.91440 0.02472 -0.43674 439.83811 0.00000 270.18449 -1.00000 0.16892 917.00000 439.83811
0.22439 0.91440 0.02430 -0.42855 437.20747 0.00000 270.18926 -1.00000 0.16710 917.00000 437.20747
0.22816 0.91440 0.02387 -0.42047 434.62594 0.00000 270.19397 -1.00000 0.16535 917.00000 434.62594
0.23192 0.91440 0.02344 -0.41249 432.07807 0.00000 270.19864 -1.00000 0.16364 917.00000 432.07807
0.23568 0.91440 0.02299 -0.40456 429.56577 0.00000 270.20327 -1.00000 0.16197 917.00000 429.56577
0.23944 0.91440 0.02254 -0.39673 427.09632 0.00000 270.20785 -1.00000 0.16034 917.00000 427.09632
0.24320 0.91440 0.02209 -0.38899 424.67739 0.00000 270.21235 -1.00000 0.15873 917.00000 424.67739
0.24696 0.91440 0.02163 -0.38130 422.28563 0.00000 270.21682 -1.00000 0.15714 917.00000 422.28563
0.25072 0.91440 0.02116 -0.37371 419.92553 0.00000 270.22126 -1.00000 0.15559 917.00000 419.92553
0.25447 0.91440 0.02068 -0.36617 417.60122 0.00000 270.22565 -1.00000 0.15405 917.00000 417.60122